<?xml version="1.0" encoding="UTF-8"?>

<!-- generated on 2026-06-28T20:08:13.812282+05:30 by Eclipse SUMO GUI 1.27.1
<sumoConfiguration xmlns:xsi="http://www.w3.org/2001/XMLSchema-instance" xsi:noNamespaceSchemaLocation="http://sumo.dlr.de/xsd/sumoConfiguration.xsd">

    <input>
        <net-file value="/home/bhavanish/.gemini/antigravity/scratch/maestro-fl/sumo_env/network/osm_fixed.net.xml"/>
        <route-files value="/home/bhavanish/.gemini/antigravity/scratch/maestro-fl/sumo_env/network/osm.passenger.trips.xml,/home/bhavanish/.gemini/antigravity/scratch/maestro-fl/sumo_env/network/osm_pt.rou.xml"/>
        <additional-files value="/home/bhavanish/.gemini/antigravity/scratch/maestro-fl/sumo_env/network/osm.poly.xml.gz,/home/bhavanish/.gemini/antigravity/scratch/maestro-fl/sumo_env/network/osm_stops.add.xml,/home/bhavanish/.gemini/antigravity/scratch/maestro-fl/sumo_env/network/output.add.xml"/>
    </input>

    <output>
        <tripinfo-output value="/home/bhavanish/.gemini/antigravity/scratch/maestro-fl/sumo_env/network/tripinfos.xml"/>
        <stop-output value="/home/bhavanish/.gemini/antigravity/scratch/maestro-fl/sumo_env/network/stopinfos.xml"/>
        <statistic-output value="/home/bhavanish/.gemini/antigravity/scratch/maestro-fl/sumo_env/network/stats.xml"/>
    </output>

    <processing>
        <ignore-route-errors value="true"/>
        <tls.actuated.jam-threshold value="30"/>
    </processing>

    <routing>
        <device.rerouting.adaptation-steps value="18"/>
        <device.rerouting.adaptation-interval value="10"/>
    </routing>

    <report>
        <verbose value="true"/>
        <duration-log.statistics value="true"/>
        <no-step-log value="true"/>
    </report>

    <traci_server>
        <remote-port value="36871"/>
    </traci_server>

    <gui_only>
        <gui-settings-file value="/home/bhavanish/.gemini/antigravity/scratch/maestro-fl/sumo_env/network/osm.view.xml"/>
        <quit-on-end value="false"/>
        <start value="true"/>
        <delay value="100"/>
    </gui_only>

</sumoConfiguration>
-->

<meandata xmlns:xsi="http://www.w3.org/2001/XMLSchema-instance" xsi:noNamespaceSchemaLocation="http://sumo.dlr.de/xsd/meandata_file.xsd">
    <interval begin="0.00" end="247.00" id="wizard_example">
        <edge id="-1044521115#0" sampledSeconds="5.15" traveltime="4.82" overlapTraveltime="5.58" density="0.29" overlapDensity="0.34" laneDensity="0.29" occupancy="0.16" waitingTime="0.00" timeLoss="1.96" speed="11.97" speedRelative="0.54" departed="1" arrived="0" entered="0" left="1" laneChangedFrom="0" laneChangedTo="0" flow="13.37"/>
        <edge id="-1044521115#1" sampledSeconds="0.00" departed="0" arrived="0" entered="0" left="0" laneChangedFrom="0" laneChangedTo="0"/>
        <edge id="-1044521115#2" sampledSeconds="0.00" departed="0" arrived="0" entered="0" left="0" laneChangedFrom="0" laneChangedTo="0"/>
        <edge id="-1044521115#3" sampledSeconds="0.00" departed="0" arrived="0" entered="0" left="0" laneChangedFrom="0" laneChangedTo="0"/>
        <edge id="-1044521115#4" sampledSeconds="0.00" departed="0" arrived="0" entered="0" left="0" laneChangedFrom="0" laneChangedTo="0"/>
        <edge id="-1044521115#5" sampledSeconds="0.00" departed="0" arrived="0" entered="0" left="0" laneChangedFrom="0" laneChangedTo="0"/>
        <edge id="-1044521116" sampledSeconds="0.00" departed="0" arrived="0" entered="0" left="0" laneChangedFrom="0" laneChangedTo="0"/>
        <edge id="-1102791646#0" sampledSeconds="0.00" departed="0" arrived="0" entered="0" left="0" laneChangedFrom="0" laneChangedTo="0"/>
        <edge id="-1102791646#1" sampledSeconds="0.00" departed="0" arrived="0" entered="0" left="0" laneChangedFrom="0" laneChangedTo="0"/>
        <edge id="-1102792424" sampledSeconds="4.88" traveltime="4.74" overlapTraveltime="5.33" density="0.31" overlapDensity="0.36" laneDensity="0.31" occupancy="0.17" waitingTime="0.00" timeLoss="1.16" speed="11.34" speedRelative="0.82" departed="1" arrived="0" entered="0" left="1" laneChangedFrom="0" laneChangedTo="0" flow="13.23"/>
        <edge id="-1102792426" sampledSeconds="0.00" departed="0" arrived="0" entered="0" left="0" laneChangedFrom="0" laneChangedTo="0"/>
        <edge id="-1102792428" sampledSeconds="11.12" traveltime="5.29" overlapTraveltime="5.66" density="0.67" overlapDensity="0.70" laneDensity="0.67" occupancy="0.32" waitingTime="0.00" timeLoss="1.73" speed="12.25" speedRelative="0.88" departed="0" arrived="2" entered="2" left="0" laneChangedFrom="0" laneChangedTo="0" flow="29.15"/>
        <edge id="-1102792429#0" sampledSeconds="0.00" departed="0" arrived="0" entered="0" left="0" laneChangedFrom="0" laneChangedTo="0"/>
        <edge id="-1102792429#1" sampledSeconds="5.35" traveltime="5.19" overlapTraveltime="5.53" density="0.31" overlapDensity="0.32" laneDensity="0.31" occupancy="0.15" waitingTime="0.00" timeLoss="0.99" speed="13.12" speedRelative="0.94" departed="0" arrived="1" entered="1" left="0" laneChangedFrom="0" laneChangedTo="0" flow="14.57"/>
        <edge id="-1102792430" sampledSeconds="0.00" departed="0" arrived="0" entered="0" left="0" laneChangedFrom="0" laneChangedTo="0"/>
        <edge id="-1102793341" sampledSeconds="0.00" departed="0" arrived="0" entered="0" left="0" laneChangedFrom="0" laneChangedTo="0"/>
        <edge id="-1102793342" sampledSeconds="4.07" traveltime="3.60" overlapTraveltime="4.85" density="0.44" overlapDensity="0.62" laneDensity="0.44" occupancy="0.26" waitingTime="0.00" timeLoss="0.87" speed="6.55" speedRelative="0.47" departed="1" arrived="0" entered="0" left="1" laneChangedFrom="0" laneChangedTo="0" flow="11.80"/>
        <edge id="-1102793343" sampledSeconds="0.00" departed="0" arrived="0" entered="0" left="0" laneChangedFrom="0" laneChangedTo="0"/>
        <edge id="-1102815944" sampledSeconds="0.00" departed="0" arrived="0" entered="0" left="0" laneChangedFrom="0" laneChangedTo="0"/>
        <edge id="-1102815945" sampledSeconds="0.00" departed="0" arrived="0" entered="0" left="0" laneChangedFrom="0" laneChangedTo="0"/>
        <edge id="-1102819790#0" sampledSeconds="0.00" departed="0" arrived="0" entered="0" left="0" laneChangedFrom="0" laneChangedTo="0"/>
        <edge id="-1102819790#1" sampledSeconds="0.00" departed="0" arrived="0" entered="0" left="0" laneChangedFrom="0" laneChangedTo="0"/>
        <edge id="-1102819790#2" sampledSeconds="0.00" departed="0" arrived="0" entered="0" left="0" laneChangedFrom="0" laneChangedTo="0"/>
        <edge id="-1125669870#0" sampledSeconds="24.04" traveltime="3.36" overlapTraveltime="4.01" density="2.40" overlapDensity="2.87" laneDensity="2.40" occupancy="1.32" waitingTime="0.00" timeLoss="14.21" speed="9.78" speedRelative="0.44" departed="0" arrived="0" entered="6" left="6" laneChangedFrom="0" laneChangedTo="0" flow="87.45"/>
        <edge id="-1125669870#1" sampledSeconds="22.26" traveltime="4.16" overlapTraveltime="4.45" density="1.52" overlapDensity="1.62" laneDensity="1.52" occupancy="0.77" waitingTime="0.00" timeLoss="9.87" speed="13.66" speedRelative="0.61" departed="0" arrived="0" entered="5" left="5" laneChangedFrom="0" laneChangedTo="0" flow="72.87"/>
        <edge id="-1125669870#3" sampledSeconds="1.35" traveltime="1.14" overlapTraveltime="1.35" density="0.18" overlapDensity="0.21" laneDensity="0.18" occupancy="0.09" waitingTime="0.00" timeLoss="0.03" speed="22.68" speedRelative="1.02" departed="0" arrived="0" entered="1" left="1" laneChangedFrom="0" laneChangedTo="0" flow="14.57"/>
        <edge id="-1125669870#4" sampledSeconds="2.08" traveltime="1.86" overlapTraveltime="2.08" density="0.18" overlapDensity="0.20" laneDensity="0.18" occupancy="0.09" waitingTime="0.00" timeLoss="0.10" speed="22.18" speedRelative="1.00" departed="0" arrived="0" entered="1" left="1" laneChangedFrom="0" laneChangedTo="0" flow="14.57"/>
        <edge id="-1125669870#5" sampledSeconds="5.37" traveltime="5.12" overlapTraveltime="5.37" density="0.27" overlapDensity="0.28" laneDensity="0.27" occupancy="0.13" waitingTime="0.00" timeLoss="1.85" speed="15.23" speedRelative="0.69" departed="0" arrived="0" entered="1" left="1" laneChangedFrom="0" laneChangedTo="0" flow="14.57"/>
        <edge id="-1130838046" sampledSeconds="2.11" traveltime="1.75" overlapTraveltime="2.11" density="0.36" overlapDensity="0.44" laneDensity="0.36" occupancy="0.17" waitingTime="0.00" timeLoss="0.54" speed="11.59" speedRelative="0.83" departed="0" arrived="1" entered="1" left="0" laneChangedFrom="0" laneChangedTo="0" flow="14.57"/>
        <edge id="-1148415187#0" sampledSeconds="0.36" traveltime="13.97" overlapTraveltime="14.79" density="0.02" overlapDensity="0.02" laneDensity="0.02" occupancy="0.00" waitingTime="0.00" timeLoss="0.19" speed="6.11" speedRelative="0.44" departed="0" arrived="0" entered="1" left="0" laneChangedFrom="0" laneChangedTo="0" flow="0.38"/>
        <edge id="-1148415187#1" sampledSeconds="0.00" departed="0" arrived="0" entered="0" left="0" laneChangedFrom="0" laneChangedTo="0"/>
        <edge id="-1148415187#2" sampledSeconds="3.89" traveltime="3.38" overlapTraveltime="4.04" density="0.44" overlapDensity="0.51" laneDensity="0.44" occupancy="0.23" waitingTime="0.00" timeLoss="1.38" speed="8.91" speedRelative="0.64" departed="0" arrived="0" entered="1" left="1" laneChangedFrom="0" laneChangedTo="0" flow="14.57"/>
        <edge id="-1148415187#3" sampledSeconds="2.39" traveltime="2.03" overlapTraveltime="2.39" density="0.31" overlapDensity="0.36" laneDensity="0.31" occupancy="0.15" waitingTime="0.00" timeLoss="0.10" speed="13.25" speedRelative="0.95" departed="0" arrived="0" entered="1" left="1" laneChangedFrom="0" laneChangedTo="0" flow="14.57"/>
        <edge id="-1148415187#4" sampledSeconds="3.43" traveltime="3.06" overlapTraveltime="3.43" density="0.32" overlapDensity="0.36" laneDensity="0.32" occupancy="0.16" waitingTime="0.00" timeLoss="0.27" speed="12.72" speedRelative="0.92" departed="0" arrived="0" entered="1" left="1" laneChangedFrom="0" laneChangedTo="0" flow="14.57"/>
        <edge id="-1148415187#5" sampledSeconds="9.43" traveltime="4.07" overlapTraveltime="4.72" density="0.91" overlapDensity="1.06" laneDensity="0.91" occupancy="0.46" waitingTime="0.00" timeLoss="3.15" speed="8.71" speedRelative="0.63" departed="0" arrived="0" entered="2" left="2" laneChangedFrom="0" laneChangedTo="0" flow="29.15"/>
        <edge id="-1183386157" sampledSeconds="0.00" departed="0" arrived="0" entered="0" left="0" laneChangedFrom="0" laneChangedTo="0"/>
        <edge id="-1219843735" sampledSeconds="0.00" departed="0" arrived="0" entered="0" left="0" laneChangedFrom="0" laneChangedTo="0"/>
        <edge id="-1222891449#1" sampledSeconds="20.71" traveltime="2.53" overlapTraveltime="3.11" density="2.46" overlapDensity="2.97" laneDensity="2.46" occupancy="1.28" waitingTime="0.00" timeLoss="9.42" speed="10.75" speedRelative="0.48" departed="0" arrived="0" entered="7" left="6" laneChangedFrom="0" laneChangedTo="0" flow="98.62"/>
        <edge id="-1250182995" sampledSeconds="0.00" departed="0" arrived="0" entered="0" left="0" laneChangedFrom="0" laneChangedTo="0"/>
        <edge id="-133951477" sampledSeconds="0.00" departed="0" arrived="0" entered="0" left="0" laneChangedFrom="0" laneChangedTo="0"/>
        <edge id="-133951478#0" sampledSeconds="1.94" traveltime="1.33" overlapTraveltime="1.94" density="0.62" overlapDensity="0.90" laneDensity="0.62" occupancy="0.30" waitingTime="0.00" timeLoss="0.75" speed="7.06" speedRelative="0.51" departed="0" arrived="0" entered="1" left="1" laneChangedFrom="0" laneChangedTo="0" flow="14.57"/>
        <edge id="-133951478#1" sampledSeconds="1.71" traveltime="1.22" overlapTraveltime="1.71" density="0.39" overlapDensity="0.55" laneDensity="0.39" occupancy="0.20" waitingTime="0.00" timeLoss="0.17" speed="10.32" speedRelative="0.74" departed="0" arrived="0" entered="1" left="1" laneChangedFrom="0" laneChangedTo="0" flow="14.57"/>
        <edge id="-133951478#2" sampledSeconds="4.44" traveltime="4.00" overlapTraveltime="4.44" density="0.39" overlapDensity="0.43" laneDensity="0.39" occupancy="0.19" waitingTime="0.00" timeLoss="0.37" speed="10.52" speedRelative="0.76" departed="0" arrived="0" entered="1" left="1" laneChangedFrom="0" laneChangedTo="0" flow="14.57"/>
        <edge id="-133951482" sampledSeconds="0.00" departed="0" arrived="0" entered="0" left="0" laneChangedFrom="0" laneChangedTo="0"/>
        <edge id="-1350390280#0" sampledSeconds="27.17" traveltime="12.46" overlapTraveltime="13.84" density="0.73" overlapDensity="0.81" laneDensity="0.73" occupancy="0.38" waitingTime="0.00" timeLoss="3.30" speed="10.12" speedRelative="0.73" departed="1" arrived="0" entered="1" left="2" laneChangedFrom="0" laneChangedTo="0" flow="28.60"/>
        <edge id="-1350390280#1" sampledSeconds="11.42" traveltime="11.41" overlapTraveltime="11.86" density="0.33" overlapDensity="0.35" laneDensity="0.33" occupancy="0.17" waitingTime="0.00" timeLoss="0.63" speed="11.63" speedRelative="0.84" departed="1" arrived="0" entered="0" left="1" laneChangedFrom="0" laneChangedTo="0" flow="14.02"/>
        <edge id="-1350390280#4" sampledSeconds="0.00" departed="0" arrived="0" entered="0" left="0" laneChangedFrom="0" laneChangedTo="0"/>
        <edge id="-1490675348" sampledSeconds="0.00" departed="0" arrived="0" entered="0" left="0" laneChangedFrom="0" laneChangedTo="0"/>
        <edge id="-1494536871#1" sampledSeconds="0.00" departed="0" arrived="0" entered="0" left="0" laneChangedFrom="0" laneChangedTo="0"/>
        <edge id="-169817047#0" sampledSeconds="10.51" traveltime="9.77" overlapTraveltime="10.51" density="0.40" overlapDensity="0.43" laneDensity="0.40" occupancy="0.20" waitingTime="0.00" timeLoss="3.70" speed="9.80" speedRelative="0.71" departed="0" arrived="0" entered="1" left="1" laneChangedFrom="0" laneChangedTo="0" flow="14.57"/>
        <edge id="-169817047#1" sampledSeconds="8.12" traveltime="7.55" overlapTraveltime="8.56" density="0.31" overlapDensity="0.35" laneDensity="0.31" occupancy="0.16" waitingTime="0.00" timeLoss="2.12" speed="11.61" speedRelative="0.84" departed="1" arrived="0" entered="0" left="1" laneChangedFrom="0" laneChangedTo="0" flow="13.79"/>
        <edge id="-169817047#2" sampledSeconds="0.00" departed="0" arrived="0" entered="0" left="0" laneChangedFrom="0" laneChangedTo="0"/>
        <edge id="-172930620#0" sampledSeconds="0.00" departed="0" arrived="0" entered="0" left="0" laneChangedFrom="0" laneChangedTo="0"/>
        <edge id="-172930620#1" sampledSeconds="5.11" traveltime="4.31" overlapTraveltime="5.11" density="0.45" overlapDensity="0.53" laneDensity="0.45" occupancy="0.23" waitingTime="0.00" timeLoss="1.08" speed="8.58" speedRelative="0.62" departed="0" arrived="0" entered="1" left="1" laneChangedFrom="0" laneChangedTo="0" flow="14.57"/>
        <edge id="-172930620#2" sampledSeconds="9.02" traveltime="4.14" overlapTraveltime="4.55" density="0.79" overlapDensity="0.86" laneDensity="0.79" occupancy="0.38" waitingTime="0.00" timeLoss="2.08" speed="10.41" speedRelative="0.75" departed="0" arrived="1" entered="2" left="1" laneChangedFrom="0" laneChangedTo="0" flow="29.15"/>
        <edge id="-172930625#0" sampledSeconds="0.00" departed="0" arrived="0" entered="0" left="0" laneChangedFrom="0" laneChangedTo="0"/>
        <edge id="-172930625#1" sampledSeconds="0.00" departed="0" arrived="0" entered="0" left="0" laneChangedFrom="0" laneChangedTo="0"/>
        <edge id="-172930627#0" sampledSeconds="10.90" traveltime="10.48" overlapTraveltime="10.90" density="0.34" overlapDensity="0.36" laneDensity="0.34" occupancy="0.17" waitingTime="0.00" timeLoss="0.46" speed="11.79" speedRelative="0.85" departed="0" arrived="1" entered="1" left="0" laneChangedFrom="0" laneChangedTo="0" flow="14.57"/>
        <edge id="-172930627#1" sampledSeconds="9.07" traveltime="8.42" overlapTraveltime="9.07" density="0.41" overlapDensity="0.45" laneDensity="0.41" occupancy="0.21" waitingTime="0.00" timeLoss="1.96" speed="9.65" speedRelative="0.69" departed="0" arrived="0" entered="1" left="1" laneChangedFrom="0" laneChangedTo="0" flow="14.57"/>
        <edge id="-172930631#0" sampledSeconds="0.00" departed="0" arrived="0" entered="0" left="0" laneChangedFrom="0" laneChangedTo="0"/>
        <edge id="-172930631#1" sampledSeconds="10.37" traveltime="4.61" overlapTraveltime="5.19" density="0.78" overlapDensity="0.88" laneDensity="0.78" occupancy="0.40" waitingTime="0.00" timeLoss="2.63" speed="10.16" speedRelative="0.73" departed="0" arrived="0" entered="2" left="2" laneChangedFrom="0" laneChangedTo="0" flow="29.15"/>
        <edge id="-172930631#2" sampledSeconds="4.61" traveltime="1.95" overlapTraveltime="2.30" density="0.58" overlapDensity="0.69" laneDensity="0.58" occupancy="0.29" waitingTime="0.00" timeLoss="0.31" speed="13.99" speedRelative="1.01" departed="0" arrived="0" entered="2" left="2" laneChangedFrom="0" laneChangedTo="0" flow="29.15"/>
        <edge id="-172930631#3" sampledSeconds="29.51" traveltime="6.80" overlapTraveltime="7.38" density="1.29" overlapDensity="1.40" laneDensity="1.29" occupancy="0.65" waitingTime="0.00" timeLoss="3.16" speed="12.24" speedRelative="0.88" departed="0" arrived="0" entered="4" left="4" laneChangedFrom="0" laneChangedTo="0" flow="58.30"/>
        <edge id="-172930633#0" sampledSeconds="21.73" traveltime="6.53" overlapTraveltime="7.24" density="1.09" overlapDensity="1.21" laneDensity="1.09" occupancy="0.55" waitingTime="0.00" timeLoss="4.73" speed="10.71" speedRelative="0.77" departed="0" arrived="0" entered="3" left="3" laneChangedFrom="0" laneChangedTo="0" flow="43.72"/>
        <edge id="-172930633#1" sampledSeconds="15.02" traveltime="7.09" overlapTraveltime="7.51" density="0.61" overlapDensity="0.65" laneDensity="0.61" occupancy="0.30" waitingTime="0.00" timeLoss="2.03" speed="13.19" speedRelative="0.95" departed="0" arrived="0" entered="2" left="2" laneChangedFrom="0" laneChangedTo="0" flow="29.15"/>
        <edge id="-172930633#2" sampledSeconds="6.89" traveltime="6.59" overlapTraveltime="6.89" density="0.28" overlapDensity="0.29" laneDensity="0.28" occupancy="0.14" waitingTime="0.00" timeLoss="0.73" speed="14.63" speedRelative="1.05" departed="0" arrived="0" entered="1" left="1" laneChangedFrom="0" laneChangedTo="0" flow="14.57"/>
        <edge id="-172930633#4" sampledSeconds="0.00" departed="0" arrived="0" entered="0" left="0" laneChangedFrom="0" laneChangedTo="0"/>
        <edge id="-172930638#0" sampledSeconds="0.00" departed="0" arrived="0" entered="0" left="0" laneChangedFrom="0" laneChangedTo="0"/>
        <edge id="-172930638#1" sampledSeconds="0.00" departed="0" arrived="0" entered="0" left="0" laneChangedFrom="0" laneChangedTo="0"/>
        <edge id="-172930638#2" sampledSeconds="0.00" departed="0" arrived="0" entered="0" left="0" laneChangedFrom="0" laneChangedTo="0"/>
        <edge id="-172930638#3" sampledSeconds="0.00" departed="0" arrived="0" entered="0" left="0" laneChangedFrom="0" laneChangedTo="0"/>
        <edge id="-172930638#4" sampledSeconds="0.00" departed="0" arrived="0" entered="0" left="0" laneChangedFrom="0" laneChangedTo="0"/>
        <edge id="-23075332#0" sampledSeconds="0.00" departed="0" arrived="0" entered="0" left="0" laneChangedFrom="0" laneChangedTo="0"/>
        <edge id="-23075332#3" sampledSeconds="0.00" departed="0" arrived="0" entered="0" left="0" laneChangedFrom="0" laneChangedTo="0"/>
        <edge id="-23075332#4" sampledSeconds="0.00" departed="0" arrived="0" entered="0" left="0" laneChangedFrom="0" laneChangedTo="0"/>
        <edge id="-238507646#0" sampledSeconds="0.00" departed="0" arrived="0" entered="0" left="0" laneChangedFrom="0" laneChangedTo="0"/>
        <edge id="-238507647#0" sampledSeconds="8.44" traveltime="7.64" overlapTraveltime="8.44" density="0.40" overlapDensity="0.44" laneDensity="0.40" occupancy="0.20" waitingTime="0.00" timeLoss="1.58" speed="9.85" speedRelative="0.71" departed="0" arrived="0" entered="1" left="1" laneChangedFrom="0" laneChangedTo="0" flow="14.57"/>
        <edge id="-259484452#0" sampledSeconds="0.00" departed="0" arrived="0" entered="0" left="0" laneChangedFrom="0" laneChangedTo="0"/>
        <edge id="-259484452#1" sampledSeconds="0.00" departed="0" arrived="0" entered="0" left="0" laneChangedFrom="0" laneChangedTo="0"/>
        <edge id="-259484452#2" sampledSeconds="10.74" traveltime="4.49" overlapTraveltime="5.37" density="0.60" overlapDensity="0.71" laneDensity="0.60" occupancy="0.32" waitingTime="0.00" timeLoss="4.20" speed="12.26" speedRelative="0.55" departed="0" arrived="0" entered="2" left="2" laneChangedFrom="0" laneChangedTo="0" flow="29.15"/>
        <edge id="-259484452#3" sampledSeconds="9.00" traveltime="4.21" overlapTraveltime="4.50" density="0.63" overlapDensity="0.67" laneDensity="0.63" occupancy="0.30" waitingTime="0.00" timeLoss="4.06" speed="13.19" speedRelative="0.59" departed="0" arrived="0" entered="2" left="2" laneChangedFrom="0" laneChangedTo="0" flow="29.15"/>
        <edge id="-259484452#4" sampledSeconds="19.18" traveltime="4.04" overlapTraveltime="4.80" density="1.31" overlapDensity="1.55" laneDensity="1.31" occupancy="0.68" waitingTime="0.00" timeLoss="6.50" speed="11.50" speedRelative="0.52" departed="0" arrived="0" entered="4" left="4" laneChangedFrom="0" laneChangedTo="0" flow="58.30"/>
        <edge id="-259484452#5" sampledSeconds="34.62" traveltime="8.25" overlapTraveltime="8.66" density="1.43" overlapDensity="1.50" laneDensity="1.43" occupancy="0.69" waitingTime="0.00" timeLoss="14.69" speed="11.41" speedRelative="0.51" departed="0" arrived="0" entered="4" left="4" laneChangedFrom="0" laneChangedTo="0" flow="58.30"/>
        <edge id="-27673609#0" sampledSeconds="0.00" departed="0" arrived="0" entered="0" left="0" laneChangedFrom="0" laneChangedTo="0"/>
        <edge id="-27673609#1" sampledSeconds="5.04" traveltime="5.28" overlapTraveltime="5.49" density="0.16" overlapDensity="0.16" laneDensity="0.16" occupancy="0.08" waitingTime="0.00" timeLoss="0.23" speed="24.01" speedRelative="1.08" departed="0" arrived="0" entered="1" left="0" laneChangedFrom="0" laneChangedTo="0" flow="13.91"/>
        <edge id="-27673609#2" sampledSeconds="34.80" traveltime="10.61" overlapTraveltime="11.60" density="0.69" overlapDensity="0.75" laneDensity="0.69" occupancy="0.35" waitingTime="0.00" timeLoss="7.93" speed="16.61" speedRelative="0.75" departed="0" arrived="0" entered="3" left="3" laneChangedFrom="0" laneChangedTo="0" flow="43.72"/>
        <edge id="-27673609#3" sampledSeconds="28.30" traveltime="9.00" overlapTraveltime="9.43" density="0.57" overlapDensity="0.60" laneDensity="0.57" occupancy="0.32" waitingTime="0.00" timeLoss="4.12" speed="20.82" speedRelative="0.94" departed="0" arrived="0" entered="3" left="3" laneChangedFrom="0" laneChangedTo="0" flow="43.72"/>
        <edge id="-27673609#5" sampledSeconds="4.80" traveltime="1.34" overlapTraveltime="1.60" density="0.59" overlapDensity="0.71" laneDensity="0.59" occupancy="0.32" waitingTime="0.00" timeLoss="0.84" speed="20.61" speedRelative="0.93" departed="0" arrived="0" entered="3" left="3" laneChangedFrom="0" laneChangedTo="0" flow="43.72"/>
        <edge id="-27791621#0" sampledSeconds="0.00" departed="0" arrived="0" entered="0" left="0" laneChangedFrom="0" laneChangedTo="0"/>
        <edge id="-27791621#1" sampledSeconds="0.00" departed="0" arrived="0" entered="0" left="0" laneChangedFrom="0" laneChangedTo="0"/>
        <edge id="-27791621#4" sampledSeconds="9.86" traveltime="9.55" overlapTraveltime="10.16" density="0.23" overlapDensity="0.24" laneDensity="0.23" occupancy="0.12" waitingTime="0.00" timeLoss="0.91" speed="16.85" speedRelative="0.76" departed="1" arrived="0" entered="0" left="1" laneChangedFrom="0" laneChangedTo="0" flow="14.13"/>
        <edge id="-27792060#0" sampledSeconds="0.00" departed="0" arrived="0" entered="0" left="0" laneChangedFrom="0" laneChangedTo="0"/>
        <edge id="-27792060#1" sampledSeconds="0.00" departed="0" arrived="0" entered="0" left="0" laneChangedFrom="0" laneChangedTo="0"/>
        <edge id="-28087618#0" sampledSeconds="0.00" departed="0" arrived="0" entered="0" left="0" laneChangedFrom="0" laneChangedTo="0"/>
        <edge id="-28087618#1" sampledSeconds="0.00" departed="0" arrived="0" entered="0" left="0" laneChangedFrom="0" laneChangedTo="0"/>
        <edge id="-28087618#2" sampledSeconds="0.00" departed="0" arrived="0" entered="0" left="0" laneChangedFrom="0" laneChangedTo="0"/>
        <edge id="-28104713#0" sampledSeconds="0.00" departed="0" arrived="0" entered="0" left="0" laneChangedFrom="0" laneChangedTo="0"/>
        <edge id="-28104713#1" sampledSeconds="0.00" departed="0" arrived="0" entered="0" left="0" laneChangedFrom="0" laneChangedTo="0"/>
        <edge id="-28104713#2" sampledSeconds="0.00" departed="0" arrived="0" entered="0" left="0" laneChangedFrom="0" laneChangedTo="0"/>
        <edge id="-28104724#0" sampledSeconds="0.00" departed="0" arrived="0" entered="0" left="0" laneChangedFrom="0" laneChangedTo="0"/>
        <edge id="-28104724#1" sampledSeconds="0.00" departed="0" arrived="0" entered="0" left="0" laneChangedFrom="0" laneChangedTo="0"/>
        <edge id="-28104724#2" sampledSeconds="0.00" departed="0" arrived="0" entered="0" left="0" laneChangedFrom="0" laneChangedTo="0"/>
        <edge id="-28104729#0" sampledSeconds="19.19" traveltime="18.71" overlapTraveltime="19.19" density="0.39" overlapDensity="0.40" laneDensity="0.39" occupancy="0.19" waitingTime="0.00" timeLoss="1.92" speed="10.39" speedRelative="0.75" departed="0" arrived="1" entered="1" left="0" laneChangedFrom="0" laneChangedTo="0" flow="14.57"/>
        <edge id="-28104729#1" sampledSeconds="0.00" departed="0" arrived="0" entered="0" left="0" laneChangedFrom="0" laneChangedTo="0"/>
        <edge id="-28104729#2" sampledSeconds="0.00" departed="0" arrived="0" entered="0" left="0" laneChangedFrom="0" laneChangedTo="0"/>
        <edge id="-28104740#0" sampledSeconds="0.00" departed="0" arrived="0" entered="0" left="0" laneChangedFrom="0" laneChangedTo="0"/>
        <edge id="-28104740#1" sampledSeconds="0.00" departed="0" arrived="0" entered="0" left="0" laneChangedFrom="0" laneChangedTo="0"/>
        <edge id="-28104740#2" sampledSeconds="0.00" departed="0" arrived="0" entered="0" left="0" laneChangedFrom="0" laneChangedTo="0"/>
        <edge id="-28113051" sampledSeconds="0.00" departed="0" arrived="0" entered="0" left="0" laneChangedFrom="0" laneChangedTo="0"/>
        <edge id="-28113105#2" sampledSeconds="0.00" departed="0" arrived="0" entered="0" left="0" laneChangedFrom="0" laneChangedTo="0"/>
        <edge id="-28113125#0" sampledSeconds="19.92" traveltime="5.23" overlapTraveltime="6.77" density="1.31" overlapDensity="1.66" laneDensity="1.31" occupancy="0.72" waitingTime="0.00" timeLoss="4.87" speed="7.91" speedRelative="0.57" departed="0" arrived="1" entered="3" left="2" laneChangedFrom="0" laneChangedTo="0" flow="43.72"/>
        <edge id="-28113125#1" sampledSeconds="17.99" traveltime="5.57" overlapTraveltime="6.00" density="1.22" overlapDensity="1.32" laneDensity="1.22" occupancy="0.59" waitingTime="0.00" timeLoss="3.60" speed="10.06" speedRelative="0.72" departed="0" arrived="0" entered="3" left="3" laneChangedFrom="0" laneChangedTo="0" flow="43.72"/>
        <edge id="-28113136" sampledSeconds="0.00" departed="0" arrived="0" entered="0" left="0" laneChangedFrom="0" laneChangedTo="0"/>
        <edge id="-289866797" sampledSeconds="0.00" departed="0" arrived="0" entered="0" left="0" laneChangedFrom="0" laneChangedTo="0"/>
        <edge id="-309584105#0" sampledSeconds="17.27" traveltime="8.47" overlapTraveltime="8.97" density="0.90" overlapDensity="0.92" laneDensity="0.90" occupancy="0.42" waitingTime="0.00" timeLoss="4.88" speed="9.02" speedRelative="0.65" departed="0" arrived="2" entered="2" left="0" laneChangedFrom="0" laneChangedTo="0" flow="29.15"/>
        <edge id="-309584105#1" sampledSeconds="0.00" departed="0" arrived="0" entered="0" left="0" laneChangedFrom="0" laneChangedTo="0"/>
        <edge id="-309584105#2" sampledSeconds="0.00" departed="0" arrived="0" entered="0" left="0" laneChangedFrom="0" laneChangedTo="0"/>
        <edge id="-309584105#3" sampledSeconds="0.00" departed="0" arrived="0" entered="0" left="0" laneChangedFrom="0" laneChangedTo="0"/>
        <edge id="-309584106" sampledSeconds="0.00" departed="0" arrived="0" entered="0" left="0" laneChangedFrom="0" laneChangedTo="0"/>
        <edge id="-309584107#0" sampledSeconds="0.00" departed="0" arrived="0" entered="0" left="0" laneChangedFrom="0" laneChangedTo="0"/>
        <edge id="-309584107#1" sampledSeconds="0.00" departed="0" arrived="0" entered="0" left="0" laneChangedFrom="0" laneChangedTo="0"/>
        <edge id="-309584107#2" sampledSeconds="0.00" departed="0" arrived="0" entered="0" left="0" laneChangedFrom="0" laneChangedTo="0"/>
        <edge id="-309584107#3" sampledSeconds="0.00" departed="0" arrived="0" entered="0" left="0" laneChangedFrom="0" laneChangedTo="0"/>
        <edge id="-309584107#4" sampledSeconds="10.04" traveltime="9.43" overlapTraveltime="10.04" density="0.38" overlapDensity="0.41" laneDensity="0.38" occupancy="0.19" waitingTime="0.00" timeLoss="2.68" speed="10.47" speedRelative="0.75" departed="0" arrived="0" entered="1" left="1" laneChangedFrom="0" laneChangedTo="0" flow="14.57"/>
        <edge id="-31560813#2" sampledSeconds="0.00" departed="0" arrived="0" entered="0" left="0" laneChangedFrom="0" laneChangedTo="0"/>
        <edge id="-31561215#0" sampledSeconds="0.00" departed="0" arrived="0" entered="0" left="0" laneChangedFrom="0" laneChangedTo="0"/>
        <edge id="-31561305#2" sampledSeconds="0.00" departed="0" arrived="0" entered="0" left="0" laneChangedFrom="0" laneChangedTo="0"/>