<?xml version="1.0" encoding="UTF-8"?>

<!-- generated on 2026-06-28T09:16:19.199572+05:30 by Eclipse SUMO sumo 1.27.1
<sumoConfiguration xmlns:xsi="http://www.w3.org/2001/XMLSchema-instance" xsi:noNamespaceSchemaLocation="http://sumo.dlr.de/xsd/sumoConfiguration.xsd">

    <input>
        <net-file value="/home/bhavanish/.gemini/antigravity/scratch/maestro-fl/sumo_env/network/osm.net.xml.gz"/>
        <route-files value="/home/bhavanish/.gemini/antigravity/scratch/maestro-fl/sumo_env/network/osm.passenger.trips.xml,/home/bhavanish/.gemini/antigravity/scratch/maestro-fl/sumo_env/network/osm_pt.rou.xml"/>
        <additional-files value="/home/bhavanish/.gemini/antigravity/scratch/maestro-fl/sumo_env/network/osm.poly.xml.gz,/home/bhavanish/.gemini/antigravity/scratch/maestro-fl/sumo_env/network/osm_stops.add.xml,/home/bhavanish/.gemini/antigravity/scratch/maestro-fl/sumo_env/network/output.add.xml"/>
    </input>

    <output>
        <tripinfo-output value="/home/bhavanish/.gemini/antigravity/scratch/maestro-fl/sumo_env/network/tripinfos.xml"/>
        <stop-output value="/home/bhavanish/.gemini/antigravity/scratch/maestro-fl/sumo_env/network/stopinfos.xml"/>
        <statistic-output value="/home/bhavanish/.gemini/antigravity/scratch/maestro-fl/sumo_env/network/stats.xml"/>
    </output>

    <processing>
        <ignore-route-errors value="true"/>
        <waiting-time-memory value="1000"/>
        <tls.actuated.jam-threshold value="30"/>
    </processing>

    <routing>
        <device.rerouting.adaptation-steps value="18"/>
        <device.rerouting.adaptation-interval value="10"/>
    </routing>

    <report>
        <verbose value="true"/>
        <duration-log.statistics value="true"/>
        <no-step-log value="true"/>
    </report>

    <traci_server>
        <remote-port value="38035"/>
    </traci_server>

    <random_number>
        <seed value="42"/>
    </random_number>

    <gui_only>
        <gui-settings-file value="/home/bhavanish/.gemini/antigravity/scratch/maestro-fl/sumo_env/network/osm.view.xml"/>
    </gui_only>

</sumoConfiguration>
-->

<meandata xmlns:xsi="http://www.w3.org/2001/XMLSchema-instance" xsi:noNamespaceSchemaLocation="http://sumo.dlr.de/xsd/meandata_file.xsd">
    <interval begin="0.00" end="1135.00" id="wizard_example">
        <edge id="-1044521115#0" sampledSeconds="15.53" traveltime="5.97" overlapTraveltime="8.07" density="0.16" overlapDensity="0.22" laneDensity="0.16" occupancy="0.10" waitingTime="1.00" timeLoss="8.62" speed="8.28" speedRelative="0.37" departed="1" arrived="0" entered="1" left="2" laneChangedFrom="0" laneChangedTo="0" flow="6.08"/>
        <edge id="-1044521115#1" sampledSeconds="0.00" departed="0" arrived="0" entered="0" left="0" laneChangedFrom="0" laneChangedTo="0"/>
        <edge id="-1044521115#2" sampledSeconds="0.00" departed="0" arrived="0" entered="0" left="0" laneChangedFrom="0" laneChangedTo="0"/>
        <edge id="-1044521115#3" sampledSeconds="3.91" traveltime="3.74" overlapTraveltime="4.18" density="0.08" overlapDensity="0.09" laneDensity="0.08" occupancy="0.04" waitingTime="0.00" timeLoss="2.31" speed="10.60" speedRelative="0.48" departed="0" arrived="1" entered="1" left="0" laneChangedFrom="0" laneChangedTo="0" flow="3.17"/>
        <edge id="-1044521115#4" sampledSeconds="0.00" departed="0" arrived="0" entered="0" left="0" laneChangedFrom="0" laneChangedTo="0"/>
        <edge id="-1044521115#5" sampledSeconds="3.26" traveltime="2.96" overlapTraveltime="3.41" density="0.09" overlapDensity="0.10" laneDensity="0.09" occupancy="0.04" waitingTime="0.00" timeLoss="1.95" speed="9.54" speedRelative="0.43" departed="0" arrived="1" entered="1" left="0" laneChangedFrom="0" laneChangedTo="0" flow="3.17"/>
        <edge id="-1044521116" sampledSeconds="0.00" departed="0" arrived="0" entered="0" left="0" laneChangedFrom="0" laneChangedTo="0"/>
        <edge id="-1102791646#0" sampledSeconds="0.00" departed="0" arrived="0" entered="0" left="0" laneChangedFrom="0" laneChangedTo="0"/>
        <edge id="-1102791646#1" sampledSeconds="0.00" departed="0" arrived="0" entered="0" left="0" laneChangedFrom="0" laneChangedTo="0"/>
        <edge id="-1102792424" sampledSeconds="6.02" traveltime="5.60" overlapTraveltime="6.57" density="0.08" overlapDensity="0.10" laneDensity="0.08" occupancy="0.04" waitingTime="0.00" timeLoss="1.49" speed="9.20" speedRelative="0.66" departed="1" arrived="0" entered="0" left="1" laneChangedFrom="0" laneChangedTo="0" flow="2.88"/>
        <edge id="-1102792426" sampledSeconds="0.00" departed="0" arrived="0" entered="0" left="0" laneChangedFrom="0" laneChangedTo="0"/>
        <edge id="-1102792428" sampledSeconds="18.48" traveltime="5.80" overlapTraveltime="6.18" density="0.24" overlapDensity="0.25" laneDensity="0.24" occupancy="0.12" waitingTime="0.00" timeLoss="3.32" speed="11.23" speedRelative="0.81" departed="0" arrived="3" entered="3" left="0" laneChangedFrom="0" laneChangedTo="0" flow="9.52"/>
        <edge id="-1102792429#0" sampledSeconds="12.35" traveltime="11.49" overlapTraveltime="12.35" density="0.09" overlapDensity="0.10" laneDensity="0.09" occupancy="0.04" waitingTime="0.00" timeLoss="2.36" speed="9.63" speedRelative="0.69" departed="0" arrived="0" entered="1" left="1" laneChangedFrom="0" laneChangedTo="0" flow="3.17"/>
        <edge id="-1102792429#1" sampledSeconds="5.22" traveltime="4.93" overlapTraveltime="5.22" density="0.06" overlapDensity="0.07" laneDensity="0.06" occupancy="0.03" waitingTime="0.00" timeLoss="1.01" speed="13.90" speedRelative="1.00" departed="0" arrived="1" entered="1" left="0" laneChangedFrom="0" laneChangedTo="0" flow="3.17"/>
        <edge id="-1102792430" sampledSeconds="0.00" departed="0" arrived="0" entered="0" left="0" laneChangedFrom="0" laneChangedTo="0"/>
        <edge id="-1102793341" sampledSeconds="5.90" traveltime="1.71" overlapTraveltime="2.55" density="0.18" overlapDensity="0.30" laneDensity="0.18" occupancy="0.12" waitingTime="0.00" timeLoss="0.93" speed="8.79" speedRelative="0.63" departed="3" arrived="0" entered="0" left="3" laneChangedFrom="0" laneChangedTo="0" flow="6.72"/>
        <edge id="-1102793342" sampledSeconds="6.67" traveltime="3.16" overlapTraveltime="3.97" density="0.17" overlapDensity="0.22" laneDensity="0.17" occupancy="0.10" waitingTime="0.00" timeLoss="1.79" speed="7.99" speedRelative="0.58" departed="2" arrived="0" entered="0" left="2" laneChangedFrom="0" laneChangedTo="0" flow="5.13"/>
        <edge id="-1102793343" sampledSeconds="0.00" departed="0" arrived="0" entered="0" left="0" laneChangedFrom="0" laneChangedTo="0"/>
        <edge id="-1102815944" sampledSeconds="0.00" departed="0" arrived="0" entered="0" left="0" laneChangedFrom="0" laneChangedTo="0"/>
        <edge id="-1102815945" sampledSeconds="19.16" traveltime="19.16" overlapTraveltime="19.57" density="0.07" overlapDensity="0.07" laneDensity="0.07" occupancy="0.04" waitingTime="0.00" timeLoss="1.06" speed="12.42" speedRelative="0.89" departed="1" arrived="0" entered="0" left="1" laneChangedFrom="0" laneChangedTo="0" flow="3.10"/>
        <edge id="-1102819790#0" sampledSeconds="0.00" departed="0" arrived="0" entered="0" left="0" laneChangedFrom="0" laneChangedTo="0"/>
        <edge id="-1102819790#1" sampledSeconds="0.00" departed="0" arrived="0" entered="0" left="0" laneChangedFrom="0" laneChangedTo="0"/>
        <edge id="-1102819790#2" sampledSeconds="0.00" departed="0" arrived="0" entered="0" left="0" laneChangedFrom="0" laneChangedTo="0"/>
        <edge id="-1125669870#0" sampledSeconds="79.58" traveltime="3.35" overlapTraveltime="3.98" density="1.74" overlapDensity="2.07" laneDensity="1.74" occupancy="0.91" waitingTime="0.00" timeLoss="42.42" speed="9.78" speedRelative="0.44" departed="0" arrived="0" entered="20" left="20" laneChangedFrom="0" laneChangedTo="0" flow="63.44"/>
        <edge id="-1125669870#1" sampledSeconds="76.11" traveltime="3.50" overlapTraveltime="3.81" density="1.11" overlapDensity="1.21" laneDensity="1.11" occupancy="0.55" waitingTime="0.00" timeLoss="18.32" speed="15.90" speedRelative="0.72" departed="0" arrived="0" entered="20" left="20" laneChangedFrom="0" laneChangedTo="0" flow="63.44"/>
        <edge id="-1125669870#3" sampledSeconds="25.67" traveltime="1.57" overlapTraveltime="1.86" density="0.74" overlapDensity="0.88" laneDensity="0.74" occupancy="0.37" waitingTime="0.00" timeLoss="5.52" speed="16.56" speedRelative="0.75" departed="1" arrived="0" entered="13" left="14" laneChangedFrom="0" laneChangedTo="0" flow="43.78"/>
        <edge id="-1125669870#4" sampledSeconds="38.10" traveltime="2.89" overlapTraveltime="3.18" density="0.74" overlapDensity="0.82" laneDensity="0.74" occupancy="0.36" waitingTime="0.00" timeLoss="12.61" speed="14.53" speedRelative="0.65" departed="0" arrived="0" entered="12" left="12" laneChangedFrom="0" laneChangedTo="0" flow="38.06"/>
        <edge id="-1125669870#5" sampledSeconds="47.82" traveltime="5.66" overlapTraveltime="5.98" density="0.52" overlapDensity="0.55" laneDensity="0.52" occupancy="0.25" waitingTime="0.00" timeLoss="16.12" speed="13.68" speedRelative="0.62" departed="0" arrived="0" entered="8" left="8" laneChangedFrom="0" laneChangedTo="0" flow="25.37"/>
        <edge id="-1130838046" sampledSeconds="2.15" traveltime="1.79" overlapTraveltime="2.15" density="0.08" overlapDensity="0.10" laneDensity="0.08" occupancy="0.04" waitingTime="0.00" timeLoss="0.64" speed="11.37" speedRelative="0.82" departed="0" arrived="1" entered="1" left="0" laneChangedFrom="0" laneChangedTo="0" flow="3.17"/>
        <edge id="-1148415187#0" sampledSeconds="26.06" traveltime="8.33" overlapTraveltime="8.76" density="0.26" overlapDensity="0.27" laneDensity="0.26" occupancy="0.13" waitingTime="0.00" timeLoss="4.02" speed="10.31" speedRelative="0.74" departed="0" arrived="3" entered="3" left="0" laneChangedFrom="0" laneChangedTo="0" flow="9.52"/>
        <edge id="-1148415187#1" sampledSeconds="5.99" traveltime="5.38" overlapTraveltime="5.99" density="0.08" overlapDensity="0.09" laneDensity="0.08" occupancy="0.04" waitingTime="0.00" timeLoss="1.80" speed="10.39" speedRelative="0.75" departed="0" arrived="0" entered="1" left="1" laneChangedFrom="0" laneChangedTo="0" flow="3.17"/>
        <edge id="-1148415187#2" sampledSeconds="3.73" traveltime="3.11" overlapTraveltime="3.73" density="0.09" overlapDensity="0.11" laneDensity="0.09" occupancy="0.05" waitingTime="0.00" timeLoss="1.48" speed="9.66" speedRelative="0.70" departed="0" arrived="0" entered="1" left="1" laneChangedFrom="0" laneChangedTo="0" flow="3.17"/>
        <edge id="-1148415187#3" sampledSeconds="4.57" traveltime="1.95" overlapTraveltime="2.31" density="0.13" overlapDensity="0.15" laneDensity="0.13" occupancy="0.06" waitingTime="0.00" timeLoss="0.14" speed="13.75" speedRelative="0.99" departed="0" arrived="1" entered="2" left="1" laneChangedFrom="0" laneChangedTo="0" flow="6.34"/>
        <edge id="-1148415187#4" sampledSeconds="11.87" traveltime="3.45" overlapTraveltime="3.96" density="0.24" overlapDensity="0.27" laneDensity="0.24" occupancy="0.12" waitingTime="0.00" timeLoss="2.09" speed="11.03" speedRelative="0.79" departed="0" arrived="0" entered="3" left="3" laneChangedFrom="0" laneChangedTo="0" flow="9.52"/>
        <edge id="-1148415187#5" sampledSeconds="35.15" traveltime="4.25" overlapTraveltime="5.02" density="0.73" overlapDensity="0.86" laneDensity="0.73" occupancy="0.37" waitingTime="0.00" timeLoss="13.35" speed="8.18" speedRelative="0.59" departed="0" arrived="0" entered="7" left="7" laneChangedFrom="0" laneChangedTo="0" flow="22.20"/>
        <edge id="-1183386157" sampledSeconds="8.17" traveltime="7.76" overlapTraveltime="8.69" density="0.08" overlapDensity="0.09" laneDensity="0.08" occupancy="0.04" waitingTime="0.00" timeLoss="1.52" speed="9.84" speedRelative="0.71" departed="1" arrived="0" entered="0" left="1" laneChangedFrom="0" laneChangedTo="0" flow="2.97"/>
        <edge id="-1219843735" sampledSeconds="0.00" departed="0" arrived="0" entered="0" left="0" laneChangedFrom="0" laneChangedTo="0"/>
        <edge id="-1222891449#1" sampledSeconds="222.16" traveltime="9.62" overlapTraveltime="10.60" density="6.28" overlapDensity="6.93" laneDensity="6.28" occupancy="3.24" waitingTime="120.00" timeLoss="182.95" speed="3.14" speedRelative="0.14" departed="0" arrived="0" entered="21" left="21" laneChangedFrom="0" laneChangedTo="0" flow="66.42"/>
        <edge id="-1250182995" sampledSeconds="0.00" departed="0" arrived="0" entered="0" left="0" laneChangedFrom="0" laneChangedTo="0"/>
        <edge id="-133951477" sampledSeconds="17.32" traveltime="8.24" overlapTraveltime="8.89" density="0.15" overlapDensity="0.16" laneDensity="0.15" occupancy="0.08" waitingTime="0.00" timeLoss="2.99" speed="11.23" speedRelative="0.81" departed="1" arrived="1" entered="1" left="1" laneChangedFrom="0" laneChangedTo="0" flow="6.17"/>
        <edge id="-133951478#0" sampledSeconds="2.26" traveltime="1.51" overlapTraveltime="2.26" density="0.15" overlapDensity="0.23" laneDensity="0.15" occupancy="0.08" waitingTime="0.00" timeLoss="1.24" speed="6.07" speedRelative="0.44" departed="0" arrived="0" entered="1" left="1" laneChangedFrom="0" laneChangedTo="0" flow="3.17"/>
        <edge id="-133951478#1" sampledSeconds="3.87" traveltime="1.28" overlapTraveltime="1.94" density="0.18" overlapDensity="0.27" laneDensity="0.18" occupancy="0.10" waitingTime="0.00" timeLoss="0.99" speed="9.09" speedRelative="0.65" departed="0" arrived="0" entered="2" left="2" laneChangedFrom="0" laneChangedTo="0" flow="6.34"/>
        <edge id="-133951478#2" sampledSeconds="17.76" traveltime="3.82" overlapTraveltime="4.44" density="0.32" overlapDensity="0.38" laneDensity="0.32" occupancy="0.16" waitingTime="0.00" timeLoss="3.23" speed="10.52" speedRelative="0.76" departed="0" arrived="0" entered="4" left="4" laneChangedFrom="0" laneChangedTo="0" flow="12.69"/>
        <edge id="-133951482" sampledSeconds="10.98" traveltime="5.25" overlapTraveltime="5.58" density="0.12" overlapDensity="0.12" laneDensity="0.12" occupancy="0.06" waitingTime="0.00" timeLoss="0.37" speed="15.22" speedRelative="1.10" departed="0" arrived="2" entered="2" left="0" laneChangedFrom="0" laneChangedTo="0" flow="6.34"/>
        <edge id="-1350390280#0" sampledSeconds="24.93" traveltime="11.28" overlapTraveltime="12.70" density="0.14" overlapDensity="0.16" laneDensity="0.14" occupancy="0.08" waitingTime="0.00" timeLoss="3.69" speed="11.03" speedRelative="0.79" departed="1" arrived="0" entered="1" left="2" laneChangedFrom="0" laneChangedTo="0" flow="6.22"/>
        <edge id="-1350390280#1" sampledSeconds="23.28" traveltime="11.15" overlapTraveltime="11.86" density="0.15" overlapDensity="0.15" laneDensity="0.15" occupancy="0.07" waitingTime="0.00" timeLoss="1.92" speed="11.63" speedRelative="0.84" departed="1" arrived="0" entered="1" left="2" laneChangedFrom="0" laneChangedTo="0" flow="6.22"/>
        <edge id="-1350390280#4" sampledSeconds="0.00" departed="0" arrived="0" entered="0" left="0" laneChangedFrom="0" laneChangedTo="0"/>
        <edge id="-1490675348" sampledSeconds="0.00" departed="0" arrived="0" entered="0" left="0" laneChangedFrom="0" laneChangedTo="0"/>
        <edge id="-1494536871#1" sampledSeconds="10.04" traveltime="4.63" overlapTraveltime="5.93" density="0.24" overlapDensity="0.31" laneDensity="0.24" occupancy="0.14" waitingTime="2.00" timeLoss="5.45" speed="5.61" speedRelative="0.40" departed="2" arrived="0" entered="0" left="2" laneChangedFrom="0" laneChangedTo="0" flow="5.20"/>
        <edge id="-169817047#0" sampledSeconds="28.98" traveltime="9.27" overlapTraveltime="9.99" density="0.24" overlapDensity="0.26" laneDensity="0.24" occupancy="0.12" waitingTime="0.00" timeLoss="5.00" speed="10.31" speedRelative="0.74" departed="2" arrived="0" entered="1" left="3" laneChangedFrom="0" laneChangedTo="0" flow="9.19"/>
        <edge id="-169817047#1" sampledSeconds="17.04" traveltime="8.07" overlapTraveltime="8.81" density="0.15" overlapDensity="0.16" laneDensity="0.15" occupancy="0.08" waitingTime="0.00" timeLoss="2.52" speed="11.28" speedRelative="0.81" departed="1" arrived="1" entered="1" left="1" laneChangedFrom="0" laneChangedTo="0" flow="6.17"/>
        <edge id="-169817047#2" sampledSeconds="14.33" traveltime="3.64" overlapTraveltime="4.78" density="0.28" overlapDensity="0.36" laneDensity="0.28" occupancy="0.15" waitingTime="0.00" timeLoss="3.55" speed="8.35" speedRelative="0.60" departed="0" arrived="0" entered="3" left="3" laneChangedFrom="0" laneChangedTo="0" flow="9.52"/>
        <edge id="-172930620#0" sampledSeconds="0.00" departed="0" arrived="0" entered="0" left="0" laneChangedFrom="0" laneChangedTo="0"/>
        <edge id="-172930620#1" sampledSeconds="13.19" traveltime="3.75" overlapTraveltime="4.40" density="0.25" overlapDensity="0.30" laneDensity="0.25" occupancy="0.13" waitingTime="0.00" timeLoss="3.73" speed="9.98" speedRelative="0.72" departed="0" arrived="0" entered="3" left="3" laneChangedFrom="0" laneChangedTo="0" flow="9.52"/>
        <edge id="-172930620#2" sampledSeconds="17.69" traveltime="4.06" overlapTraveltime="4.42" density="0.34" overlapDensity="0.37" laneDensity="0.34" occupancy="0.16" waitingTime="0.00" timeLoss="4.62" speed="10.72" speedRelative="0.77" departed="0" arrived="1" entered="4" left="3" laneChangedFrom="0" laneChangedTo="0" flow="12.69"/>
        <edge id="-172930625#0" sampledSeconds="0.00" departed="0" arrived="0" entered="0" left="0" laneChangedFrom="0" laneChangedTo="0"/>
        <edge id="-172930625#1" sampledSeconds="0.00" departed="0" arrived="0" entered="0" left="0" laneChangedFrom="0" laneChangedTo="0"/>
        <edge id="-172930627#0" sampledSeconds="18.11" traveltime="8.75" overlapTraveltime="9.10" density="0.12" overlapDensity="0.13" laneDensity="0.12" occupancy="0.06" waitingTime="0.00" timeLoss="1.67" speed="14.12" speedRelative="1.02" departed="0" arrived="2" entered="2" left="0" laneChangedFrom="0" laneChangedTo="0" flow="6.34"/>
        <edge id="-172930627#1" sampledSeconds="22.88" traveltime="7.05" overlapTraveltime="7.63" density="0.23" overlapDensity="0.24" laneDensity="0.23" occupancy="0.11" waitingTime="0.00" timeLoss="5.90" speed="11.48" speedRelative="0.83" departed="0" arrived="1" entered="3" left="2" laneChangedFrom="0" laneChangedTo="0" flow="9.52"/>
        <edge id="-172930631#0" sampledSeconds="21.29" traveltime="20.95" overlapTraveltime="21.35" density="0.07" overlapDensity="0.07" laneDensity="0.07" occupancy="0.03" waitingTime="0.00" timeLoss="1.14" speed="12.78" speedRelative="0.92" departed="0" arrived="1" entered="1" left="0" laneChangedFrom="0" laneChangedTo="0" flow="3.17"/>
        <edge id="-172930631#1" sampledSeconds="40.60" traveltime="4.80" overlapTraveltime="5.96" density="0.60" overlapDensity="0.75" laneDensity="0.60" occupancy="0.33" waitingTime="0.00" timeLoss="13.50" speed="8.83" speedRelative="0.64" departed="2" arrived="0" entered="5" left="7" laneChangedFrom="0" laneChangedTo="0" flow="21.52"/>
        <edge id="-172930631#2" sampledSeconds="11.54" traveltime="1.96" overlapTraveltime="2.31" density="0.32" overlapDensity="0.37" laneDensity="0.32" occupancy="0.16" waitingTime="0.00" timeLoss="0.50" speed="13.95" speedRelative="1.00" departed="0" arrived="0" entered="5" left="5" laneChangedFrom="0" laneChangedTo="0" flow="15.86"/>
        <edge id="-172930631#3" sampledSeconds="64.80" traveltime="6.65" overlapTraveltime="7.20" density="0.62" overlapDensity="0.67" laneDensity="0.62" occupancy="0.31" waitingTime="0.00" timeLoss="7.25" speed="12.54" speedRelative="0.90" departed="0" arrived="0" entered="9" left="9" laneChangedFrom="0" laneChangedTo="0" flow="28.55"/>
        <edge id="-172930633#0" sampledSeconds="53.66" traveltime="6.98" overlapTraveltime="7.74" density="0.59" overlapDensity="0.65" laneDensity="0.59" occupancy="0.30" waitingTime="0.00" timeLoss="12.45" speed="10.03" speedRelative="0.72" departed="1" arrived="0" entered="6" left="7" laneChangedFrom="0" laneChangedTo="0" flow="21.98"/>
        <edge id="-172930633#1" sampledSeconds="33.91" traveltime="7.84" overlapTraveltime="8.59" density="0.29" overlapDensity="0.32" laneDensity="0.29" occupancy="0.15" waitingTime="0.00" timeLoss="4.89" speed="11.54" speedRelative="0.83" departed="1" arrived="0" entered="3" left="4" laneChangedFrom="0" laneChangedTo="0" flow="12.52"/>
        <edge id="-172930633#2" sampledSeconds="16.02" traveltime="7.63" overlapTraveltime="8.01" density="0.14" overlapDensity="0.15" laneDensity="0.14" occupancy="0.07" waitingTime="0.00" timeLoss="1.33" speed="12.59" speedRelative="0.91" departed="0" arrived="0" entered="2" left="2" laneChangedFrom="0" laneChangedTo="0" flow="6.34"/>
        <edge id="-172930633#4" sampledSeconds="2.33" traveltime="2.35" overlapTraveltime="2.70" density="0.05" overlapDensity="0.06" laneDensity="0.05" occupancy="0.03" waitingTime="0.00" timeLoss="0.11" speed="13.78" speedRelative="0.99" departed="1" arrived="0" entered="0" left="1" laneChangedFrom="0" laneChangedTo="0" flow="2.67"/>
        <edge id="-172930638#0" sampledSeconds="6.04" traveltime="4.69" overlapTraveltime="6.04" density="0.08" overlapDensity="0.11" laneDensity="0.08" occupancy="0.05" waitingTime="0.00" timeLoss="1.95" speed="8.94" speedRelative="0.64" departed="0" arrived="0" entered="1" left="1" laneChangedFrom="0" laneChangedTo="0" flow="3.17"/>
        <edge id="-172930638#1" sampledSeconds="7.53" traveltime="7.20" overlapTraveltime="7.53" density="0.06" overlapDensity="0.06" laneDensity="0.06" occupancy="0.03" waitingTime="0.00" timeLoss="0.25" speed="15.22" speedRelative="1.10" departed="0" arrived="0" entered="1" left="1" laneChangedFrom="0" laneChangedTo="0" flow="3.17"/>
        <edge id="-172930638#2" sampledSeconds="6.55" traveltime="6.23" overlapTraveltime="6.55" density="0.06" overlapDensity="0.06" laneDensity="0.06" occupancy="0.03" waitingTime="0.00" timeLoss="0.22" speed="15.22" speedRelative="1.10" departed="0" arrived="0" entered="1" left="1" laneChangedFrom="0" laneChangedTo="0" flow="3.17"/>
        <edge id="-172930638#3" sampledSeconds="21.11" traveltime="6.54" overlapTraveltime="7.04" density="0.22" overlapDensity="0.23" laneDensity="0.22" occupancy="0.11" waitingTime="0.00" timeLoss="3.65" speed="12.07" speedRelative="0.87" departed="0" arrived="1" entered="3" left="2" laneChangedFrom="0" laneChangedTo="0" flow="9.52"/>
        <edge id="-172930638#4" sampledSeconds="2.95" traveltime="2.96" overlapTraveltime="3.32" density="0.06" overlapDensity="0.07" laneDensity="0.06" occupancy="0.03" waitingTime="0.00" timeLoss="0.14" speed="13.49" speedRelative="0.97" departed="1" arrived="0" entered="0" left="1" laneChangedFrom="0" laneChangedTo="0" flow="2.77"/>
        <edge id="-23075332#0" sampledSeconds="111.89" traveltime="55.76" overlapTraveltime="55.99" density="0.08" overlapDensity="0.08" laneDensity="0.08" occupancy="0.04" waitingTime="0.00" timeLoss="8.12" speed="21.30" speedRelative="0.96" departed="0" arrived="2" entered="2" left="0" laneChangedFrom="0" laneChangedTo="0" flow="6.34"/>
        <edge id="-23075332#3" sampledSeconds="31.40" traveltime="9.97" overlapTraveltime="10.47" density="0.20" overlapDensity="0.21" laneDensity="0.20" occupancy="0.10" waitingTime="0.00" timeLoss="11.63" speed="13.23" speedRelative="0.60" departed="0" arrived="1" entered="3" left="2" laneChangedFrom="0" laneChangedTo="0" flow="9.52"/>
        <edge id="-23075332#4" sampledSeconds="0.00" departed="0" arrived="0" entered="0" left="0" laneChangedFrom="0" laneChangedTo="0"/>
        <edge id="-238507646#0" sampledSeconds="0.00" departed="0" arrived="0" entered="0" left="0" laneChangedFrom="0" laneChangedTo="0"/>
        <edge id="-238507647#0" sampledSeconds="22.39" traveltime="6.99" overlapTraveltime="7.62" density="0.23" overlapDensity="0.25" laneDensity="0.23" occupancy="0.12" waitingTime="0.00" timeLoss="3.52" speed="10.91" speedRelative="0.79" departed="1" arrived="1" entered="2" left="2" laneChangedFrom="0" laneChangedTo="0" flow="9.31"/>
        <edge id="-259484452#0" sampledSeconds="0.00" departed="0" arrived="0" entered="0" left="0" laneChangedFrom="0" laneChangedTo="0"/>
        <edge id="-259484452#1" sampledSeconds="0.00" departed="0" arrived="0" entered="0" left="0" laneChangedFrom="0" laneChangedTo="0"/>
        <edge id="-259484452#2" sampledSeconds="41.03" traveltime="4.31" overlapTraveltime="5.13" density="0.50" overlapDensity="0.59" laneDensity="0.50" occupancy="0.27" waitingTime="0.00" timeLoss="12.69" speed="12.84" speedRelative="0.58" departed="0" arrived="0" entered="8" left="8" laneChangedFrom="0" laneChangedTo="0" flow="25.37"/>
        <edge id="-259484452#3" sampledSeconds="33.11" traveltime="3.87" overlapTraveltime="4.14" density="0.50" overlapDensity="0.54" laneDensity="0.50" occupancy="0.24" waitingTime="0.00" timeLoss="11.73" speed="14.33" speedRelative="0.65" departed="0" arrived="0" entered="8" left="8" laneChangedFrom="0" laneChangedTo="0" flow="25.37"/>
        <edge id="-259484452#4" sampledSeconds="55.68" traveltime="4.02" overlapTraveltime="4.64" density="0.85" overlapDensity="0.98" laneDensity="0.85" occupancy="0.43" waitingTime="0.00" timeLoss="21.08" speed="11.89" speedRelative="0.54" departed="0" arrived="0" entered="12" left="12" laneChangedFrom="0" laneChangedTo="0" flow="38.06"/>
        <edge id="-259484452#5" sampledSeconds="126.89" traveltime="7.97" overlapTraveltime="8.46" density="1.12" overlapDensity="1.19" laneDensity="1.12" occupancy="0.55" waitingTime="0.00" timeLoss="55.47" speed="11.67" speedRelative="0.53" departed="0" arrived="2" entered="15" left="13" laneChangedFrom="0" laneChangedTo="0" flow="47.58"/>
        <edge id="-27673609#0" sampledSeconds="21.62" traveltime="3.25" overlapTraveltime="4.32" density="0.50" overlapDensity="0.67" laneDensity="0.50" occupancy="0.28" waitingTime="0.00" timeLoss="8.98" speed="7.76" speedRelative="0.35" departed="0" arrived="0" entered="5" left="5" laneChangedFrom="0" laneChangedTo="0" flow="15.86"/>
        <edge id="-27673609#1" sampledSeconds="40.58" traveltime="6.69" overlapTraveltime="6.96" density="0.27" overlapDensity="0.28" laneDensity="0.27" occupancy="0.14" waitingTime="0.00" timeLoss="4.98" speed="18.92" speedRelative="0.85" departed="0" arrived="0" entered="6" left="5" laneChangedFrom="0" laneChangedTo="0" flow="18.59"/>
        <edge id="-27673609#2" sampledSeconds="103.59" traveltime="10.89" overlapTraveltime="11.51" density="0.46" overlapDensity="0.49" laneDensity="0.46" occupancy="0.23" waitingTime="0.00" timeLoss="15.72" speed="16.74" speedRelative="0.75" departed="0" arrived="0" entered="9" left="9" laneChangedFrom="0" laneChangedTo="0" flow="28.55"/>
        <edge id="-27673609#3" sampledSeconds="81.94" traveltime="9.95" overlapTraveltime="10.24" density="0.37" overlapDensity="0.38" laneDensity="0.37" occupancy="0.18" waitingTime="0.00" timeLoss="8.09" speed="19.12" speedRelative="0.86" departed="0" arrived="1" entered="8" left="7" laneChangedFrom="0" laneChangedTo="0" flow="25.37"/>
        <edge id="-27673609#5" sampledSeconds="21.34" traveltime="1.96" overlapTraveltime="2.37" density="0.56" overlapDensity="0.68" laneDensity="0.56" occupancy="0.29" waitingTime="0.00" timeLoss="6.16" speed="13.71" speedRelative="0.62" departed="0" arrived="0" entered="9" left="9" laneChangedFrom="0" laneChangedTo="0" flow="28.55"/>
        <edge id="-27791621#0" sampledSeconds="13.13" traveltime="6.36" overlapTraveltime="6.63" density="0.09" overlapDensity="0.09" laneDensity="0.09" occupancy="0.05" waitingTime="0.00" timeLoss="0.36" speed="19.18" speedRelative="0.86" departed="0" arrived="2" entered="2" left="0" laneChangedFrom="0" laneChangedTo="0" flow="6.34"/>
        <edge id="-27791621#1" sampledSeconds="16.06" traveltime="7.77" overlapTraveltime="8.03" density="0.14" overlapDensity="0.14" laneDensity="0.14" occupancy="0.07" waitingTime="0.00" timeLoss="5.66" speed="12.78" speedRelative="0.58" departed="0" arrived="0" entered="2" left="2" laneChangedFrom="0" laneChangedTo="0" flow="6.34"/>
        <edge id="-27791621#4" sampledSeconds="8.37" traveltime="7.97" overlapTraveltime="8.62" density="0.04" overlapDensity="0.04" laneDensity="0.04" occupancy="0.02" waitingTime="0.00" timeLoss="1.15" speed="19.85" speedRelative="0.89" departed="1" arrived="0" entered="0" left="1" laneChangedFrom="0" laneChangedTo="0" flow="3.07"/>
        <edge id="-27792060#0" sampledSeconds="0.00" departed="0" arrived="0" entered="0" left="0" laneChangedFrom="0" laneChangedTo="0"/>
        <edge id="-27792060#1" sampledSeconds="0.00" departed="0" arrived="0" entered="0" left="0" laneChangedFrom="0" laneChangedTo="0"/>
        <edge id="-28087618#0" sampledSeconds="0.00" departed="0" arrived="0" entered="0" left="0" laneChangedFrom="0" laneChangedTo="0"/>
        <edge id="-28087618#1" sampledSeconds="0.00" departed="0" arrived="0" entered="0" left="0" laneChangedFrom="0" laneChangedTo="0"/>
        <edge id="-28087618#2" sampledSeconds="0.00" departed="0" arrived="0" entered="0" left="0" laneChangedFrom="0" laneChangedTo="0"/>
        <edge id="-28104713#0" sampledSeconds="35.30" traveltime="16.84" overlapTraveltime="17.65" density="0.15" overlapDensity="0.16" laneDensity="0.15" occupancy="0.08" waitingTime="0.00" timeLoss="4.79" speed="11.18" speedRelative="0.80" departed="0" arrived="0" entered="2" left="2" laneChangedFrom="0" laneChangedTo="0" flow="6.34"/>
        <edge id="-28104713#1" sampledSeconds="0.00" departed="0" arrived="0" entered="0" left="0" laneChangedFrom="0" laneChangedTo="0"/>
        <edge id="-28104713#2" sampledSeconds="11.76" traveltime="11.50" overlapTraveltime="11.92" density="0.08" overlapDensity="0.08" laneDensity="0.08" occupancy="0.04" waitingTime="0.00" timeLoss="1.78" speed="10.90" speedRelative="0.78" departed="0" arrived="1" entered="1" left="0" laneChangedFrom="0" laneChangedTo="0" flow="3.17"/>