<?xml version="1.0" encoding="UTF-8"?>

<!-- generated on 2026-06-28T20:08:13.643336+05:30 by Eclipse SUMO GUI 1.27.1
<sumoConfiguration xmlns:xsi="http://www.w3.org/2001/XMLSchema-instance" xsi:noNamespaceSchemaLocation="http://sumo.dlr.de/xsd/sumoConfiguration.xsd">

    <input>
        <net-file value="/home/bhavanish/.gemini/antigravity/scratch/maestro-fl/sumo_env/network/osm_fixed.net.xml"/>
        <route-files value="/home/bhavanish/.gemini/antigravity/scratch/maestro-fl/sumo_env/network/osm.passenger.trips.xml,/home/bhavanish/.gemini/antigravity/scratch/maestro-fl/sumo_env/network/osm_pt.rou.xml"/>
        <additional-files value="/home/bhavanish/.gemini/antigravity/scratch/maestro-fl/sumo_env/network/osm.poly.xml.gz,/home/bhavanish/.gemini/antigravity/scratch/maestro-fl/sumo_env/network/osm_stops.add.xml,/home/bhavanish/.gemini/antigravity/scratch/maestro-fl/sumo_env/network/output.add.xml"/>
    </input>

    <output>
        <tripinfo-output value="/home/bhavanish/.gemini/antigravity/scratch/maestro-fl/sumo_env/network/tripinfos.xml"/>
        <stop-output value="/home/bhavanish/.gemini/antigravity/scratch/maestro-fl/sumo_env/network/stopinfos.xml"/>
        <statistic-output value="/home/bhavanish/.gemini/antigravity/scratch/maestro-fl/sumo_env/network/stats.xml"/>
    </output>

    <processing>
        <ignore-route-errors value="true"/>
        <tls.actuated.jam-threshold value="30"/>
    </processing>

    <routing>
        <device.rerouting.adaptation-steps value="18"/>
        <device.rerouting.adaptation-interval value="10"/>
    </routing>

    <report>
        <verbose value="true"/>
        <duration-log.statistics value="true"/>
        <no-step-log value="true"/>
    </report>

    <traci_server>
        <remote-port value="36871"/>
    </traci_server>

    <gui_only>
        <gui-settings-file value="/home/bhavanish/.gemini/antigravity/scratch/maestro-fl/sumo_env/network/osm.view.xml"/>
        <quit-on-end value="false"/>
        <start value="true"/>
        <delay value="100"/>
    </gui_only>

</sumoConfiguration>
-->

<tripinfos xmlns:xsi="http://www.w3.org/2001/XMLSchema-instance" xsi:noNamespaceSchemaLocation="http://sumo.dlr.de/xsd/tripinfo_file.xsd">
    <tripinfo id="veh0" depart="0.00" departLane="172930627#0_0" departPos="5.10" departSpeed="14.72" departDelay="0.00" arrival="49.00" arrivalLane="-1102792428_0" arrivalPos="64.41" arrivalSpeed="13.83" duration="49.00" routeLength="586.13" waitingTime="0.00" waitingCount="0" stopTime="0.00" timeLoss="7.51" rerouteNo="1" devices="tripinfo_veh0 routing_veh0" vType="veh_passenger" speedFactor="1.06" vaporized=""/>
    <tripinfo id="veh4" depart="25.00" departLane="1044521115#2_0" departPos="5.10" departSpeed="22.22" departDelay="0.11" arrival="114.00" arrivalLane="-1102792428_0" arrivalPos="64.41" arrivalSpeed="14.00" duration="89.00" routeLength="934.58" waitingTime="14.00" waitingCount="1" stopTime="0.00" timeLoss="41.72" rerouteNo="1" devices="tripinfo_veh4 routing_veh4" vType="veh_passenger" speedFactor="1.03" vaporized=""/>
    <tripinfo id="veh5" depart="32.00" departLane="-1102793342_0" departPos="5.10" departSpeed="11.54" departDelay="0.88" arrival="121.00" arrivalLane="-28104729#0_0" arrivalPos="194.30" arrivalSpeed="10.52" duration="89.00" routeLength="1042.22" waitingTime="0.00" waitingCount="0" stopTime="0.00" timeLoss="17.68" rerouteNo="1" devices="tripinfo_veh5 routing_veh5" vType="veh_passenger" speedFactor="0.83" vaporized=""/>
    <tripinfo id="veh6" depart="38.00" departLane="32424487_0" departPos="5.10" departSpeed="14.53" departDelay="0.66" arrival="133.00" arrivalLane="27673609#2_0" arrivalPos="187.67" arrivalSpeed="23.19" duration="95.00" routeLength="1439.75" waitingTime="0.00" waitingCount="0" stopTime="0.00" timeLoss="26.92" rerouteNo="1" devices="tripinfo_veh6 routing_veh6" vType="veh_passenger" speedFactor="1.05" vaporized=""/>
    <tripinfo id="veh8" depart="50.00" departLane="40633856#1_0" departPos="5.10" departSpeed="26.05" departDelay="0.21" arrival="138.00" arrivalLane="1347260864#5_0" arrivalPos="131.88" arrivalSpeed="11.34" duration="88.00" routeLength="955.38" waitingTime="37.00" waitingCount="1" stopTime="0.00" timeLoss="51.00" rerouteNo="1" devices="tripinfo_veh8 routing_veh8" vType="veh_passenger" speedFactor="0.94" vaporized=""/>
    <tripinfo id="veh12" depart="75.00" departLane="40633858#2_0" departPos="5.10" departSpeed="9.15" departDelay="0.32" arrival="146.00" arrivalLane="1347255635#1_1" arrivalPos="51.23" arrivalSpeed="6.72" duration="71.00" routeLength="1088.56" waitingTime="0.00" waitingCount="0" stopTime="0.00" timeLoss="28.57" rerouteNo="1" devices="tripinfo_veh12 routing_veh12" vType="veh_passenger" speedFactor="1.05" vaporized=""/>
    <tripinfo id="veh7" depart="44.00" departLane="-1350390280#1_0" departPos="5.10" departSpeed="12.31" departDelay="0.43" arrival="150.00" arrivalLane="-172930627#0_0" arrivalPos="123.46" arrivalSpeed="11.93" duration="106.00" routeLength="1159.84" waitingTime="0.00" waitingCount="0" stopTime="0.00" timeLoss="20.64" rerouteNo="1" devices="tripinfo_veh7 routing_veh7" vType="veh_passenger" speedFactor="0.89" vaporized=""/>
    <tripinfo id="veh13" depart="81.00" departLane="259484452#3_0" departPos="5.10" departSpeed="18.85" departDelay="0.09" arrival="166.00" arrivalLane="-1130838046_0" arrivalPos="19.49" arrivalSpeed="13.60" duration="85.00" routeLength="1031.97" waitingTime="0.00" waitingCount="0" stopTime="0.00" timeLoss="33.36" rerouteNo="1" devices="tripinfo_veh13 routing_veh13" vType="veh_passenger" speedFactor="1.12" vaporized=""/>
    <tripinfo id="veh3" depart="19.00" departLane="40633864#0_0" departPos="5.10" departSpeed="15.04" departDelay="0.33" arrival="167.00" arrivalLane="-172930620#2_0" arrivalPos="42.40" arrivalSpeed="13.65" duration="148.00" routeLength="1547.99" waitingTime="31.00" waitingCount="1" stopTime="0.00" timeLoss="72.75" rerouteNo="1" devices="tripinfo_veh3 routing_veh3" vType="veh_passenger" speedFactor="1.08" vaporized=""/>
    <tripinfo id="veh16" depart="100.00" departLane="-27791621#4_0" departPos="5.10" departSpeed="19.52" departDelay="0.42" arrival="170.00" arrivalLane="28113125#1_0" arrivalPos="55.04" arrivalSpeed="11.28" duration="70.00" routeLength="774.87" waitingTime="0.00" waitingCount="0" stopTime="0.00" timeLoss="18.56" rerouteNo="1" devices="tripinfo_veh16 routing_veh16" vType="veh_passenger" speedFactor="0.88" vaporized=""/>
    <tripinfo id="veh14" depart="88.00" departLane="-780753380_0" departPos="5.10" departSpeed="13.77" departDelay="0.87" arrival="176.00" arrivalLane="-28113125#0_0" arrivalPos="48.55" arrivalSpeed="5.79" duration="88.00" routeLength="1243.59" waitingTime="2.00" waitingCount="1" stopTime="0.00" timeLoss="30.00" rerouteNo="1" devices="tripinfo_veh14 routing_veh14" vType="veh_passenger" speedFactor="0.99" vaporized=""/>
    <tripinfo id="veh11" depart="69.00" departLane="40633855#3_0" departPos="5.10" departSpeed="13.89" departDelay="0.54" arrival="180.00" arrivalLane="1494536871#1_0" arrivalPos="28.26" arrivalSpeed="13.54" duration="111.00" routeLength="1706.33" waitingTime="6.00" waitingCount="1" stopTime="0.00" timeLoss="34.12" rerouteNo="1" devices="tripinfo_veh11 routing_veh11" vType="veh_passenger" speedFactor="1.03" vaporized=""/>
    <tripinfo id="pt_subway_Green:1.0" depart="52.00" departLane="549256475#0_0" departPos="109.60" departSpeed="2.77" departDelay="0.00" arrival="181.00" arrivalLane="549256475#1_0" arrivalPos="1193.40" arrivalSpeed="2.10" duration="129.00" routeLength="1224.90" waitingTime="2.00" waitingCount="2" stopTime="58.00" timeLoss="6.69" rerouteNo="0" devices="tripinfo_pt_subway_Green:1.0" vType="pt_subway" speedFactor="1.00" vaporized=""/>
    <tripinfo id="veh22" depart="137.00" departLane="-40633859#0_0" departPos="5.10" departSpeed="13.54" departDelay="0.08" arrival="183.00" arrivalLane="-32424487_0" arrivalPos="108.83" arrivalSpeed="12.73" duration="46.00" routeLength="598.25" waitingTime="0.00" waitingCount="0" stopTime="0.00" timeLoss="14.02" rerouteNo="1" devices="tripinfo_veh22 routing_veh22" vType="veh_passenger" speedFactor="0.97" vaporized=""/>
    <tripinfo id="veh9" depart="57.00" departLane="32424806_0" departPos="5.10" departSpeed="11.90" departDelay="0.99" arrival="186.00" arrivalLane="28113125#1_0" arrivalPos="55.04" arrivalSpeed="11.79" duration="129.00" routeLength="1375.65" waitingTime="14.00" waitingCount="1" stopTime="0.00" timeLoss="44.81" rerouteNo="1" devices="tripinfo_veh9 routing_veh9" vType="veh_passenger" speedFactor="0.86" vaporized=""/>
    <tripinfo id="veh2" depart="13.00" departLane="28087618#0_0" departPos="5.10" departSpeed="14.03" departDelay="0.55" arrival="188.00" arrivalLane="172930638#4_0" arrivalPos="39.85" arrivalSpeed="13.98" duration="175.00" routeLength="1929.17" waitingTime="28.00" waitingCount="1" stopTime="0.00" timeLoss="73.63" rerouteNo="1" devices="tripinfo_veh2 routing_veh2" vType="veh_passenger" speedFactor="1.01" vaporized=""/>
    <tripinfo id="veh19" depart="119.00" departLane="-31561309#2_0" departPos="5.10" departSpeed="13.89" departDelay="0.75" arrival="193.00" arrivalLane="-1102792429#1_0" arrivalPos="67.59" arrivalSpeed="15.82" duration="74.00" routeLength="830.42" waitingTime="2.00" waitingCount="1" stopTime="0.00" timeLoss="25.19" rerouteNo="1" devices="tripinfo_veh19 routing_veh19" vType="veh_passenger" speedFactor="1.16" vaporized=""/>
    <tripinfo id="veh15" depart="94.00" departLane="172930631#0_0" departPos="5.10" departSpeed="12.87" departDelay="0.64" arrival="198.00" arrivalLane="1350390280#1_0" arrivalPos="132.85" arrivalSpeed="12.64" duration="104.00" routeLength="1188.22" waitingTime="0.00" waitingCount="0" stopTime="0.00" timeLoss="18.17" rerouteNo="1" devices="tripinfo_veh15 routing_veh15" vType="veh_passenger" speedFactor="0.93" vaporized=""/>
    <tripinfo id="veh10" depart="63.00" departLane="1259589337#0_0" departPos="5.10" departSpeed="30.30" departDelay="0.76" arrival="203.00" arrivalLane="780912686#1_0" arrivalPos="64.26" arrivalSpeed="1.80" duration="140.00" routeLength="1688.32" waitingTime="26.00" waitingCount="1" stopTime="0.00" timeLoss="57.56" rerouteNo="1" devices="tripinfo_veh10 routing_veh10" vType="veh_passenger" speedFactor="1.09" vaporized=""/>
    <tripinfo id="veh20" depart="125.00" departLane="-554198053#2_0" departPos="5.10" departSpeed="14.14" departDelay="0.53" arrival="203.00" arrivalLane="-40633855#0_0" arrivalPos="37.59" arrivalSpeed="13.34" duration="78.00" routeLength="1029.67" waitingTime="0.00" waitingCount="0" stopTime="0.00" timeLoss="21.04" rerouteNo="1" devices="tripinfo_veh20 routing_veh20" vType="veh_passenger" speedFactor="1.02" vaporized=""/>
    <tripinfo id="veh17" depart="106.00" departLane="133951478#1_0" departPos="5.10" departSpeed="13.08" departDelay="0.20" arrival="205.00" arrivalLane="23075332#3_0" arrivalPos="133.50" arrivalSpeed="19.85" duration="99.00" routeLength="1419.26" waitingTime="0.00" waitingCount="0" stopTime="0.00" timeLoss="24.13" rerouteNo="1" devices="tripinfo_veh17 routing_veh17" vType="veh_passenger" speedFactor="0.94" vaporized=""/>
    <tripinfo id="ambulance_1" depart="50.00" departLane="40633859#8_0" departPos="6.60" departSpeed="0.00" departDelay="0.00" arrival="205.00" arrivalLane="799788864#5_0" arrivalPos="554.60" arrivalSpeed="32.63" duration="155.00" routeLength="2901.05" waitingTime="0.00" waitingCount="0" stopTime="0.00" timeLoss="31.85" rerouteNo="0" devices="tripinfo_ambulance_1" vType="emergency" speedFactor="1.50" vaporized=""/>
    <tripinfo id="veh29" depart="181.00" departLane="799788865_0" departPos="5.10" departSpeed="10.34" departDelay="0.51" arrival="222.00" arrivalLane="1222891449#0_0" arrivalPos="28.37" arrivalSpeed="20.40" duration="41.00" routeLength="580.49" waitingTime="0.00" waitingCount="0" stopTime="0.00" timeLoss="9.37" rerouteNo="1" devices="tripinfo_veh29 routing_veh29" vType="veh_passenger" speedFactor="0.93" vaporized=""/>
    <tripinfo id="veh25" depart="156.00" departLane="-799788864#0_0" departPos="5.10" departSpeed="19.39" departDelay="0.41" arrival="228.00" arrivalLane="-309584105#0_0" arrivalPos="75.95" arrivalSpeed="11.32" duration="72.00" routeLength="1005.49" waitingTime="0.00" waitingCount="0" stopTime="0.00" timeLoss="18.85" rerouteNo="1" devices="tripinfo_veh25 routing_veh25" vType="veh_passenger" speedFactor="0.87" vaporized=""/>
    <tripinfo id="veh18" depart="113.00" departLane="40633856#0_0" departPos="5.10" departSpeed="26.01" departDelay="0.97" arrival="231.00" arrivalLane="334716569#1_0" arrivalPos="52.83" arrivalSpeed="12.72" duration="118.00" routeLength="1612.17" waitingTime="24.00" waitingCount="1" stopTime="0.00" timeLoss="46.02" rerouteNo="1" devices="tripinfo_veh18 routing_veh18" vType="veh_passenger" speedFactor="0.94" vaporized=""/>
    <tripinfo id="veh1" depart="7.00" departLane="-40633859#8_0" departPos="5.10" departSpeed="13.03" departDelay="0.78" arrival="234.00" arrivalLane="-309584105#0_0" arrivalPos="75.95" arrivalSpeed="11.74" duration="227.00" routeLength="2658.29" waitingTime="31.00" waitingCount="1" stopTime="0.00" timeLoss="73.43" rerouteNo="1" devices="tripinfo_veh1 routing_veh1" vType="veh_passenger" speedFactor="0.94" vaporized=""/>
    <tripinfo id="veh21" depart="131.00" departLane="40633859#5_0" departPos="5.10" departSpeed="13.89" departDelay="0.30" arrival="242.00" arrivalLane="-40633865_0" arrivalPos="119.39" arrivalSpeed="13.91" duration="111.00" routeLength="872.26" waitingTime="37.00" waitingCount="1" stopTime="0.00" timeLoss="66.02" rerouteNo="1" devices="tripinfo_veh21 routing_veh21" vType="veh_passenger" speedFactor="1.01" vaporized=""/>
    <tripinfo id="veh26" depart="162.00" departLane="995160694#0_0" departPos="5.10" departSpeed="12.74" departDelay="0.18" arrival="244.00" arrivalLane="1222891447#4_0" arrivalPos="91.55" arrivalSpeed="24.46" duration="82.00" routeLength="767.41" waitingTime="29.00" waitingCount="1" stopTime="0.00" timeLoss="46.46" rerouteNo="1" devices="tripinfo_veh26 routing_veh26" vType="veh_passenger" speedFactor="0.92" vaporized=""/>
</tripinfos>
