<?xml version="1.0" encoding="UTF-8"?>

<!-- generated on 2026-06-28T09:16:19.010291+05:30 by Eclipse SUMO sumo 1.27.1
<sumoConfiguration xmlns:xsi="http://www.w3.org/2001/XMLSchema-instance" xsi:noNamespaceSchemaLocation="http://sumo.dlr.de/xsd/sumoConfiguration.xsd">

    <input>
        <net-file value="/home/bhavanish/.gemini/antigravity/scratch/maestro-fl/sumo_env/network/osm.net.xml.gz"/>
        <route-files value="/home/bhavanish/.gemini/antigravity/scratch/maestro-fl/sumo_env/network/osm.passenger.trips.xml,/home/bhavanish/.gemini/antigravity/scratch/maestro-fl/sumo_env/network/osm_pt.rou.xml"/>
        <additional-files value="/home/bhavanish/.gemini/antigravity/scratch/maestro-fl/sumo_env/network/osm.poly.xml.gz,/home/bhavanish/.gemini/antigravity/scratch/maestro-fl/sumo_env/network/osm_stops.add.xml,/home/bhavanish/.gemini/antigravity/scratch/maestro-fl/sumo_env/network/output.add.xml"/>
    </input>

    <output>
        <tripinfo-output value="/home/bhavanish/.gemini/antigravity/scratch/maestro-fl/sumo_env/network/tripinfos.xml"/>
        <stop-output value="/home/bhavanish/.gemini/antigravity/scratch/maestro-fl/sumo_env/network/stopinfos.xml"/>
        <statistic-output value="/home/bhavanish/.gemini/antigravity/scratch/maestro-fl/sumo_env/network/stats.xml"/>
    </output>

    <processing>
        <ignore-route-errors value="true"/>
        <waiting-time-memory value="1000"/>
        <tls.actuated.jam-threshold value="30"/>
    </processing>

    <routing>
        <device.rerouting.adaptation-steps value="18"/>
        <device.rerouting.adaptation-interval value="10"/>
    </routing>

    <report>
        <verbose value="true"/>
        <duration-log.statistics value="true"/>
        <no-step-log value="true"/>
    </report>

    <traci_server>
        <remote-port value="38035"/>
    </traci_server>

    <random_number>
        <seed value="42"/>
    </random_number>

    <gui_only>
        <gui-settings-file value="/home/bhavanish/.gemini/antigravity/scratch/maestro-fl/sumo_env/network/osm.view.xml"/>
    </gui_only>

</sumoConfiguration>
-->

<tripinfos xmlns:xsi="http://www.w3.org/2001/XMLSchema-instance" xsi:noNamespaceSchemaLocation="http://sumo.dlr.de/xsd/tripinfo_file.xsd">
    <tripinfo id="veh0" depart="0.00" departLane="172930627#0_0" departPos="5.10" departSpeed="13.17" departDelay="0.00" arrival="54.00" arrivalLane="-1102792428_0" arrivalPos="64.41" arrivalSpeed="12.75" duration="54.00" routeLength="586.13" waitingTime="0.00" waitingCount="0" stopTime="0.00" timeLoss="7.47" rerouteNo="1" devices="tripinfo_veh0 routing_veh0" vType="veh_passenger" speedFactor="0.95" vaporized=""/>
    <tripinfo id="ambulance_1" depart="50.00" departLane="40633855#3_0" departPos="0.00" departSpeed="0.00" departDelay="0.00" arrival="107.00" arrivalLane="1222891447#3_0" arrivalPos="49.04" arrivalSpeed="28.49" duration="57.00" routeLength="1164.41" waitingTime="0.00" waitingCount="0" stopTime="0.00" timeLoss="20.42" rerouteNo="0" devices="tripinfo_ambulance_1" vType="emergency@ambulance_1" speedFactor="1.50" vaporized=""/>
    <tripinfo id="veh5" depart="32.00" departLane="-1102793342_0" departPos="5.10" departSpeed="11.72" departDelay="0.88" arrival="108.00" arrivalLane="-28104729#0_0" arrivalPos="194.30" arrivalSpeed="14.63" duration="76.00" routeLength="1042.22" waitingTime="0.00" waitingCount="0" stopTime="0.00" timeLoss="22.21" rerouteNo="1" devices="tripinfo_veh5 routing_veh5" vType="veh_passenger" speedFactor="1.08" vaporized=""/>
    <tripinfo id="veh4" depart="25.00" departLane="1044521115#2_0" departPos="5.10" departSpeed="20.69" departDelay="0.11" arrival="121.00" arrivalLane="-1102792428_0" arrivalPos="64.41" arrivalSpeed="12.23" duration="96.00" routeLength="934.54" waitingTime="15.00" waitingCount="1" stopTime="0.00" timeLoss="43.64" rerouteNo="1" devices="tripinfo_veh4 routing_veh4" vType="veh_passenger" speedFactor="0.93" vaporized=""/>
    <tripinfo id="veh7" depart="44.00" departLane="-1350390280#1_0" departPos="5.10" departSpeed="13.89" departDelay="0.43" arrival="139.00" arrivalLane="-172930627#0_0" arrivalPos="123.46" arrivalSpeed="14.43" duration="95.00" routeLength="1159.84" waitingTime="0.00" waitingCount="0" stopTime="0.00" timeLoss="28.53" rerouteNo="1" devices="tripinfo_veh7 routing_veh7" vType="veh_passenger" speedFactor="1.13" vaporized=""/>
    <tripinfo id="veh16" depart="100.00" departLane="-27791621#4_0" departPos="5.10" departSpeed="22.22" departDelay="0.42" arrival="161.00" arrivalLane="28113125#1_0" arrivalPos="55.04" arrivalSpeed="15.46" duration="61.00" routeLength="774.87" waitingTime="0.00" waitingCount="0" stopTime="0.00" timeLoss="20.63" rerouteNo="1" devices="tripinfo_veh16 routing_veh16" vType="veh_passenger" speedFactor="1.13" vaporized=""/>
    <tripinfo id="veh13" depart="81.00" departLane="259484452#3_0" departPos="5.10" departSpeed="18.85" departDelay="0.09" arrival="166.00" arrivalLane="-1130838046_0" arrivalPos="19.49" arrivalSpeed="13.67" duration="85.00" routeLength="1031.97" waitingTime="0.00" waitingCount="0" stopTime="0.00" timeLoss="34.89" rerouteNo="1" devices="tripinfo_veh13 routing_veh13" vType="veh_passenger" speedFactor="1.16" vaporized=""/>
    <tripinfo id="pt_subway_Green:1.0" depart="52.00" departLane="549256475#0_0" departPos="109.60" departSpeed="2.77" departDelay="0.00" arrival="181.00" arrivalLane="549256475#1_0" arrivalPos="1193.40" arrivalSpeed="2.53" duration="129.00" routeLength="1224.90" waitingTime="0.00" waitingCount="0" stopTime="59.00" timeLoss="6.42" rerouteNo="0" devices="tripinfo_pt_subway_Green:1.0" vType="pt_subway" speedFactor="1.00" vaporized=""/>
    <tripinfo id="veh22" depart="137.00" departLane="-40633859#0_0" departPos="5.10" departSpeed="13.89" departDelay="0.08" arrival="183.00" arrivalLane="-32424487_0" arrivalPos="108.83" arrivalSpeed="13.95" duration="46.00" routeLength="598.22" waitingTime="0.00" waitingCount="0" stopTime="0.00" timeLoss="15.20" rerouteNo="1" devices="tripinfo_veh22 routing_veh22" vType="veh_passenger" speedFactor="1.05" vaporized=""/>
    <tripinfo id="veh8" depart="50.00" departLane="40633856#1_0" departPos="5.10" departSpeed="24.52" departDelay="0.21" arrival="187.00" arrivalLane="1347260864#5_0" arrivalPos="131.88" arrivalSpeed="24.34" duration="137.00" routeLength="955.42" waitingTime="87.00" waitingCount="1" stopTime="0.00" timeLoss="97.14" rerouteNo="1" devices="tripinfo_veh8 routing_veh8" vType="veh_passenger" speedFactor="0.88" vaporized=""/>
    <tripinfo id="veh19" depart="119.00" departLane="-31561309#2_0" departPos="5.10" departSpeed="13.89" departDelay="0.75" arrival="188.00" arrivalLane="-1102792429#1_0" arrivalPos="67.59" arrivalSpeed="16.98" duration="69.00" routeLength="830.42" waitingTime="0.00" waitingCount="0" stopTime="0.00" timeLoss="23.74" rerouteNo="1" devices="tripinfo_veh19 routing_veh19" vType="veh_passenger" speedFactor="1.24" vaporized=""/>
    <tripinfo id="veh15" depart="94.00" departLane="172930631#0_0" departPos="5.10" departSpeed="13.76" departDelay="0.64" arrival="195.00" arrivalLane="1350390280#1_0" arrivalPos="132.85" arrivalSpeed="13.45" duration="101.00" routeLength="1188.22" waitingTime="0.00" waitingCount="0" stopTime="0.00" timeLoss="19.74" rerouteNo="1" devices="tripinfo_veh15 routing_veh15" vType="veh_passenger" speedFactor="0.99" vaporized=""/>
    <tripinfo id="veh6" depart="38.00" departLane="32424487_0" departPos="5.10" departSpeed="14.30" departDelay="0.66" arrival="198.00" arrivalLane="27673609#2_0" arrivalPos="187.67" arrivalSpeed="22.43" duration="160.00" routeLength="1439.75" waitingTime="54.00" waitingCount="2" stopTime="0.00" timeLoss="90.96" rerouteNo="1" devices="tripinfo_veh6 routing_veh6" vType="veh_passenger" speedFactor="1.03" vaporized=""/>
    <tripinfo id="veh12" depart="75.00" departLane="40633858#2_0" departPos="5.10" departSpeed="9.15" departDelay="0.32" arrival="199.00" arrivalLane="1347255635#1_1" arrivalPos="51.23" arrivalSpeed="12.70" duration="124.00" routeLength="1088.57" waitingTime="39.00" waitingCount="1" stopTime="0.00" timeLoss="68.28" rerouteNo="1" devices="tripinfo_veh12 routing_veh12" vType="veh_passenger" speedFactor="0.82" vaporized=""/>
    <tripinfo id="veh20" depart="125.00" departLane="-554198053#2_0" departPos="5.10" departSpeed="15.22" departDelay="0.53" arrival="200.00" arrivalLane="-40633855#0_0" arrivalPos="37.59" arrivalSpeed="13.56" duration="75.00" routeLength="1029.63" waitingTime="0.00" waitingCount="0" stopTime="0.00" timeLoss="22.86" rerouteNo="1" devices="tripinfo_veh20 routing_veh20" vType="veh_passenger" speedFactor="1.10" vaporized=""/>
    <tripinfo id="veh17" depart="106.00" departLane="133951478#1_0" departPos="5.10" departSpeed="12.18" departDelay="0.20" arrival="215.00" arrivalLane="23075332#3_0" arrivalPos="133.50" arrivalSpeed="18.87" duration="109.00" routeLength="1419.26" waitingTime="0.00" waitingCount="0" stopTime="0.00" timeLoss="29.41" rerouteNo="1" devices="tripinfo_veh17 routing_veh17" vType="veh_passenger" speedFactor="0.88" vaporized=""/>
    <tripinfo id="veh11" depart="69.00" departLane="40633855#3_0" departPos="5.10" departSpeed="13.81" departDelay="0.54" arrival="219.00" arrivalLane="1494536871#1_0" arrivalPos="28.26" arrivalSpeed="13.05" duration="150.00" routeLength="1706.33" waitingTime="33.00" waitingCount="2" stopTime="0.00" timeLoss="69.15" rerouteNo="1" devices="tripinfo_veh11 routing_veh11" vType="veh_passenger" speedFactor="0.99" vaporized=""/>
    <tripinfo id="veh29" depart="181.00" departLane="799788865_0" departPos="5.10" departSpeed="10.34" departDelay="0.51" arrival="219.00" arrivalLane="1222891449#0_0" arrivalPos="28.37" arrivalSpeed="23.43" duration="38.00" routeLength="580.49" waitingTime="0.00" waitingCount="0" stopTime="0.00" timeLoss="10.94" rerouteNo="1" devices="tripinfo_veh29 routing_veh29" vType="veh_passenger" speedFactor="1.08" vaporized=""/>
    <tripinfo id="veh25" depart="156.00" departLane="-799788864#0_0" departPos="5.10" departSpeed="19.94" departDelay="0.41" arrival="221.00" arrivalLane="-309584105#0_0" arrivalPos="75.95" arrivalSpeed="13.79" duration="65.00" routeLength="1005.45" waitingTime="0.00" waitingCount="0" stopTime="0.00" timeLoss="22.48" rerouteNo="1" devices="tripinfo_veh25 routing_veh25" vType="veh_passenger" speedFactor="1.08" vaporized=""/>
    <tripinfo id="veh14" depart="88.00" departLane="-780753380_0" departPos="5.10" departSpeed="13.00" departDelay="0.87" arrival="228.00" arrivalLane="-28113125#0_0" arrivalPos="48.55" arrivalSpeed="7.53" duration="140.00" routeLength="1243.60" waitingTime="39.00" waitingCount="2" stopTime="0.00" timeLoss="78.57" rerouteNo="1" devices="tripinfo_veh14 routing_veh14" vType="veh_passenger" speedFactor="0.94" vaporized=""/>
    <tripinfo id="veh3" depart="19.00" departLane="40633864#0_0" departPos="5.10" departSpeed="12.24" departDelay="0.33" arrival="232.00" arrivalLane="-172930620#2_0" arrivalPos="42.40" arrivalSpeed="11.92" duration="213.00" routeLength="1548.03" waitingTime="76.00" waitingCount="2" stopTime="0.00" timeLoss="121.52" rerouteNo="1" devices="tripinfo_veh3 routing_veh3" vType="veh_passenger" speedFactor="0.88" vaporized=""/>
    <tripinfo id="veh18" depart="113.00" departLane="40633856#0_0" departPos="5.10" departSpeed="27.81" departDelay="0.97" arrival="232.00" arrivalLane="334716569#1_0" arrivalPos="52.83" arrivalSpeed="13.43" duration="119.00" routeLength="1612.29" waitingTime="28.00" waitingCount="1" stopTime="0.00" timeLoss="51.90" rerouteNo="1" devices="tripinfo_veh18 routing_veh18" vType="veh_passenger" speedFactor="1.00" vaporized=""/>
    <tripinfo id="veh2" depart="13.00" departLane="28087618#0_0" departPos="5.10" departSpeed="16.14" departDelay="0.55" arrival="234.00" arrivalLane="172930638#4_0" arrivalPos="39.85" arrivalSpeed="15.70" duration="221.00" routeLength="1929.13" waitingTime="82.00" waitingCount="1" stopTime="0.00" timeLoss="133.33" rerouteNo="1" devices="tripinfo_veh2 routing_veh2" vType="veh_passenger" speedFactor="1.16" vaporized=""/>
    <tripinfo id="veh9" depart="57.00" departLane="32424806_0" departPos="5.10" departSpeed="11.74" departDelay="0.99" arrival="239.00" arrivalLane="28113125#1_0" arrivalPos="55.04" arrivalSpeed="11.24" duration="182.00" routeLength="1375.66" waitingTime="66.00" waitingCount="1" stopTime="0.00" timeLoss="97.23" rerouteNo="1" devices="tripinfo_veh9 routing_veh9" vType="veh_passenger" speedFactor="0.84" vaporized=""/>
    <tripinfo id="veh24" depart="152.00" departLane="1347260864#5_1" departPos="5.10" departSpeed="17.19" departDelay="2.63" arrival="239.00" arrivalLane="763589765_0" arrivalPos="200.90" arrivalSpeed="12.86" duration="87.00" routeLength="1340.29" waitingTime="0.00" waitingCount="0" stopTime="0.00" timeLoss="17.07" rerouteNo="1" devices="tripinfo_veh24 routing_veh24" vType="veh_passenger" speedFactor="0.97" vaporized=""/>
    <tripinfo id="veh26" depart="162.00" departLane="995160694#0_0" departPos="5.10" departSpeed="13.05" departDelay="0.18" arrival="242.00" arrivalLane="1222891447#4_0" arrivalPos="91.55" arrivalSpeed="25.62" duration="80.00" routeLength="767.45" waitingTime="26.00" waitingCount="1" stopTime="0.00" timeLoss="45.17" rerouteNo="1" devices="tripinfo_veh26 routing_veh26" vType="veh_passenger" speedFactor="0.94" vaporized=""/>
    <tripinfo id="veh21" depart="131.00" departLane="40633859#5_0" departPos="5.10" departSpeed="12.14" departDelay="0.30" arrival="246.00" arrivalLane="-40633865_0" arrivalPos="119.39" arrivalSpeed="11.31" duration="115.00" routeLength="872.26" waitingTime="31.00" waitingCount="2" stopTime="0.00" timeLoss="63.42" rerouteNo="1" devices="tripinfo_veh21 routing_veh21" vType="veh_passenger" speedFactor="0.87" vaporized=""/>
    <tripinfo id="veh27" depart="169.00" departLane="-1350390280#0_0" departPos="5.10" departSpeed="12.59" departDelay="0.96" arrival="254.00" arrivalLane="-1148415187#0_0" arrivalPos="85.35" arrivalSpeed="11.89" duration="85.00" routeLength="1081.30" waitingTime="0.00" waitingCount="0" stopTime="0.00" timeLoss="12.37" rerouteNo="1" devices="tripinfo_veh27 routing_veh27" vType="veh_passenger" speedFactor="0.91" vaporized=""/>
    <tripinfo id="veh28" depart="175.00" departLane="-169817047#1_0" departPos="5.10" departSpeed="13.86" departDelay="0.74" arrival="254.00" arrivalLane="169121710#1_1" arrivalPos="37.05" arrivalSpeed="14.55" duration="79.00" routeLength="1008.18" waitingTime="0.00" waitingCount="0" stopTime="0.00" timeLoss="22.47" rerouteNo="1" devices="tripinfo_veh28 routing_veh28" vType="veh_passenger" speedFactor="1.00" vaporized=""/>
    <tripinfo id="veh10" depart="63.00" departLane="1259589337#0_0" departPos="5.10" departSpeed="27.81" departDelay="0.76" arrival="261.00" arrivalLane="780912686#1_0" arrivalPos="64.26" arrivalSpeed="2.00" duration="198.00" routeLength="1688.25" waitingTime="78.00" waitingCount="1" stopTime="0.00" timeLoss="109.16" rerouteNo="1" devices="tripinfo_veh10 routing_veh10" vType="veh_passenger" speedFactor="1.00" vaporized=""/>
    <tripinfo id="veh23" depart="144.00" departLane="133951482_0" departPos="5.10" departSpeed="15.57" departDelay="0.85" arrival="261.00" arrivalLane="-334716569#1_0" arrivalPos="52.83" arrivalSpeed="15.53" duration="117.00" routeLength="1680.12" waitingTime="2.00" waitingCount="1" stopTime="0.00" timeLoss="40.27" rerouteNo="1" devices="tripinfo_veh23 routing_veh23" vType="veh_passenger" speedFactor="1.12" vaporized=""/>
    <tripinfo id="veh35" depart="218.00" departLane="146449643#0_0" departPos="5.10" departSpeed="31.95" departDelay="0.17" arrival="261.00" arrivalLane="-259484452#5_0" arrivalPos="93.74" arrivalSpeed="19.42" duration="43.00" routeLength="889.77" waitingTime="0.00" waitingCount="0" stopTime="0.00" timeLoss="12.64" rerouteNo="1" devices="tripinfo_veh35 routing_veh35" vType="veh_passenger" speedFactor="1.15" vaporized=""/>
    <tripinfo id="veh34" depart="212.00" departLane="-40633863_0" departPos="5.10" departSpeed="16.01" departDelay="0.39" arrival="271.00" arrivalLane="169121710#1_1" arrivalPos="37.05" arrivalSpeed="14.33" duration="59.00" routeLength="639.82" waitingTime="0.00" waitingCount="0" stopTime="0.00" timeLoss="23.01" rerouteNo="1" devices="tripinfo_veh34 routing_veh34" vType="veh_passenger" speedFactor="1.15" vaporized=""/>
    <tripinfo id="pt_subway_Green:0.0" depart="15.00" departLane="607901283#1_0" departPos="109.60" departSpeed="22.22" departDelay="0.00" arrival="274.00" arrivalLane="607901283#1_0" arrivalPos="1201.90" arrivalSpeed="21.05" duration="259.00" routeLength="2294.20" waitingTime="1.00" waitingCount="1" stopTime="35.00" timeLoss="4.88" rerouteNo="0" devices="tripinfo_pt_subway_Green:0.0" vType="pt_subway" speedFactor="1.00" vaporized=""/>
    <tripinfo id="veh1" depart="7.00" departLane="-40633859#8_0" departPos="5.10" departSpeed="14.89" departDelay="0.78" arrival="279.00" arrivalLane="-309584105#0_0" arrivalPos="75.95" arrivalSpeed="14.84" duration="272.00" routeLength="2658.21" waitingTime="92.00" waitingCount="3" stopTime="0.00" timeLoss="137.57" rerouteNo="1" devices="tripinfo_veh1 routing_veh1" vType="veh_passenger" speedFactor="1.07" vaporized=""/>
    <tripinfo id="veh33" depart="206.00" departLane="1125669870#1_0" departPos="5.10" departSpeed="19.12" departDelay="0.62" arrival="284.00" arrivalLane="780753380_0" arrivalPos="68.67" arrivalSpeed="13.85" duration="78.00" routeLength="751.79" waitingTime="13.00" waitingCount="1" stopTime="0.00" timeLoss="42.56" rerouteNo="1" devices="tripinfo_veh33 routing_veh33" vType="veh_passenger" speedFactor="1.01" vaporized=""/>
    <tripinfo id="veh37" depart="231.00" departLane="-1044521115#0_0" departPos="5.10" departSpeed="20.34" departDelay="0.72" arrival="296.00" arrivalLane="-40633866_0" arrivalPos="132.37" arrivalSpeed="14.43" duration="65.00" routeLength="732.68" waitingTime="2.00" waitingCount="1" stopTime="0.00" timeLoss="28.93" rerouteNo="1" devices="tripinfo_veh37 routing_veh37" vType="veh_passenger" speedFactor="1.07" vaporized=""/>
    <tripinfo id="veh39" depart="243.00" departLane="-40633867_0" departPos="5.10" departSpeed="12.73" departDelay="0.27" arrival="306.00" arrivalLane="-1148415187#3_0" arrivalPos="26.73" arrivalSpeed="12.59" duration="63.00" routeLength="794.32" waitingTime="0.00" waitingCount="0" stopTime="0.00" timeLoss="17.15" rerouteNo="1" devices="tripinfo_veh39 routing_veh39" vType="veh_passenger" speedFactor="0.92" vaporized=""/>
    <tripinfo id="pt_subway_Green:2.0" depart="133.00" departLane="607901283#1_0" departPos="109.60" departSpeed="22.22" departDelay="0.00" arrival="316.00" arrivalLane="607901283#1_0" arrivalPos="1201.90" arrivalSpeed="21.49" duration="183.00" routeLength="2294.20" waitingTime="1.00" waitingCount="1" stopTime="34.00" timeLoss="4.75" rerouteNo="0" devices="tripinfo_pt_subway_Green:2.0" vType="pt_subway" speedFactor="1.00" vaporized=""/>
    <tripinfo id="veh32" depart="200.00" departLane="-40633859#1_0" departPos="5.10" departSpeed="11.44" departDelay="0.84" arrival="335.00" arrivalLane="169817047#1_0" arrivalPos="102.46" arrivalSpeed="10.16" duration="135.00" routeLength="1234.41" waitingTime="23.00" waitingCount="1" stopTime="0.00" timeLoss="52.82" rerouteNo="1" devices="tripinfo_veh32 routing_veh32" vType="veh_passenger" speedFactor="0.82" vaporized=""/>
    <tripinfo id="veh30" depart="187.00" departLane="-1102792424_0" departPos="5.10" departSpeed="13.09" departDelay="0.29" arrival="338.00" arrivalLane="28104729#2_0" arrivalPos="125.26" arrivalSpeed="12.74" duration="151.00" routeLength="1519.69" waitingTime="32.00" waitingCount="1" stopTime="0.00" timeLoss="64.81" rerouteNo="1" devices="tripinfo_veh30 routing_veh30" vType="veh_passenger" speedFactor="0.94" vaporized=""/>
    <tripinfo id="veh31" depart="193.00" departLane="23075332#0_0" departPos="5.10" departSpeed="23.91" departDelay="0.06" arrival="338.00" arrivalLane="1250182995_0" arrivalPos="6.35" arrivalSpeed="13.96" duration="145.00" routeLength="2625.75" waitingTime="3.00" waitingCount="1" stopTime="0.00" timeLoss="34.92" rerouteNo="1" devices="tripinfo_veh31 routing_veh31" vType="veh_passenger" speedFactor="1.08" vaporized=""/>
    <tripinfo id="veh40" depart="249.00" departLane="40633860#1_0" departPos="5.10" departSpeed="11.94" departDelay="0.05" arrival="344.00" arrivalLane="780428221#7_0" arrivalPos="288.80" arrivalSpeed="23.85" duration="95.00" routeLength="1669.21" waitingTime="0.00" waitingCount="0" stopTime="0.00" timeLoss="14.25" rerouteNo="1" devices="tripinfo_veh40 routing_veh40" vType="veh_passenger" speedFactor="0.86" vaporized=""/>
    <tripinfo id="veh51" depart="318.00" departLane="40633858#0_0" departPos="5.10" departSpeed="22.22" departDelay="0.59" arrival="352.00" arrivalLane="-133951482_0" arrivalPos="79.97" arrivalSpeed="15.60" duration="34.00" routeLength="615.34" waitingTime="0.00" waitingCount="0" stopTime="0.00" timeLoss="3.44" rerouteNo="1" devices="tripinfo_veh51 routing_veh51" vType="veh_passenger" speedFactor="1.14" vaporized=""/>
    <tripinfo id="veh43" depart="268.00" departLane="28113125#0_0" departPos="5.10" departSpeed="11.49" departDelay="0.38" arrival="357.00" arrivalLane="-23075332#3_0" arrivalPos="133.50" arrivalSpeed="17.11" duration="89.00" routeLength="958.42" waitingTime="0.00" waitingCount="0" stopTime="0.00" timeLoss="20.77" rerouteNo="1" devices="tripinfo_veh43 routing_veh43" vType="veh_passenger" speedFactor="0.83" vaporized=""/>
    <tripinfo id="veh41" depart="256.00" departLane="-133951477_0" departPos="5.10" departSpeed="13.25" departDelay="0.83" arrival="358.00" arrivalLane="1125669870#0_0" arrivalPos="33.98" arrivalSpeed="18.04" duration="102.00" routeLength="1385.63" waitingTime="0.00" waitingCount="0" stopTime="0.00" timeLoss="25.71" rerouteNo="1" devices="tripinfo_veh41 routing_veh41" vType="veh_passenger" speedFactor="0.95" vaporized=""/>
    <tripinfo id="veh48" depart="299.00" departLane="1102792426_0" departPos="5.10" departSpeed="12.83" departDelay="0.26" arrival="370.00" arrivalLane="1222891447#7_0" arrivalPos="22.48" arrivalSpeed="25.02" duration="71.00" routeLength="1061.47" waitingTime="0.00" waitingCount="0" stopTime="0.00" timeLoss="21.85" rerouteNo="1" devices="tripinfo_veh48 routing_veh48" vType="veh_passenger" speedFactor="0.92" vaporized=""/>
    <tripinfo id="veh44" depart="274.00" departLane="1148415187#2_0" departPos="5.10" departSpeed="13.89" departDelay="0.16" arrival="378.00" arrivalLane="1259589338#1_1" arrivalPos="169.76" arrivalSpeed="27.10" duration="104.00" routeLength="1188.09" waitingTime="27.00" waitingCount="1" stopTime="0.00" timeLoss="57.58" rerouteNo="1" devices="tripinfo_veh44 routing_veh44" vType="veh_passenger" speedFactor="1.12" vaporized=""/>
    <tripinfo id="veh46" depart="287.00" departLane="1044521115#2_0" departPos="5.10" departSpeed="18.84" departDelay="0.71" arrival="395.00" arrivalLane="-28113125#0_0" arrivalPos="48.55" arrivalSpeed="10.79" duration="108.00" routeLength="985.34" waitingTime="34.00" waitingCount="1" stopTime="0.00" timeLoss="54.42" rerouteNo="1" devices="tripinfo_veh46 routing_veh46" vType="veh_passenger" speedFactor="0.85" vaporized=""/>
    <tripinfo id="veh45" depart="281.00" departLane="-40633859#0_0" departPos="5.10" departSpeed="13.76" departDelay="0.93" arrival="397.00" arrivalLane="462900086#3_1" arrivalPos="79.37" arrivalSpeed="27.42" duration="116.00" routeLength="1679.30" waitingTime="11.00" waitingCount="1" stopTime="0.00" timeLoss="49.14" rerouteNo="1" devices="tripinfo_veh45 routing_veh45" vType="veh_passenger" speedFactor="0.99" vaporized=""/>
    <tripinfo id="veh47" depart="293.00" departLane="799788864#4_0" departPos="5.10" departSpeed="19.88" departDelay="0.49" arrival="402.00" arrivalLane="172930625#1_0" arrivalPos="71.83" arrivalSpeed="13.45" duration="109.00" routeLength="1563.54" waitingTime="0.00" waitingCount="0" stopTime="0.00" timeLoss="28.38" rerouteNo="1" devices="tripinfo_veh47 routing_veh47" vType="veh_passenger" speedFactor="1.03" vaporized=""/>
    <tripinfo id="veh36" depart="225.00" departLane="28113051_0" departPos="5.10" departSpeed="13.89" departDelay="0.95" arrival="406.00" arrivalLane="1250182995_0" arrivalPos="6.35" arrivalSpeed="13.79" duration="181.00" routeLength="2523.95" waitingTime="13.00" waitingCount="2" stopTime="0.00" timeLoss="69.10" rerouteNo="1" devices="tripinfo_veh36 routing_veh36" vType="veh_passenger" speedFactor="1.06" vaporized=""/>
    <tripinfo id="veh52" depart="324.00" departLane="-38042298#1_0" departPos="5.10" departSpeed="20.17" departDelay="0.37" arrival="407.00" arrivalLane="172930633#4_0" arrivalPos="32.25" arrivalSpeed="12.47" duration="83.00" routeLength="869.00" waitingTime="11.00" waitingCount="1" stopTime="0.00" timeLoss="31.24" rerouteNo="1" devices="tripinfo_veh52 routing_veh52" vType="veh_passenger" speedFactor="0.91" vaporized=""/>
    <tripinfo id="veh53" depart="330.00" departLane="1044521115#3_0" departPos="5.10" departSpeed="22.22" departDelay="0.14" arrival="407.00" arrivalLane="1102793343_0" arrivalPos="30.14" arrivalSpeed="12.58" duration="77.00" routeLength="773.65" waitingTime="12.00" waitingCount="2" stopTime="0.00" timeLoss="36.73" rerouteNo="1" devices="tripinfo_veh53 routing_veh53" vType="veh_passenger" speedFactor="1.05" vaporized=""/>
    <tripinfo id="veh55" depart="343.00" departLane="-799788864#2_0" departPos="5.10" departSpeed="22.22" departDelay="0.70" arrival="412.00" arrivalLane="-554187870#0_0" arrivalPos="106.39" arrivalSpeed="14.63" duration="69.00" routeLength="993.85" waitingTime="0.00" waitingCount="0" stopTime="0.00" timeLoss="20.30" rerouteNo="1" devices="tripinfo_veh55 routing_veh55" vType="veh_passenger" speedFactor="1.07" vaporized=""/>
    <tripinfo id="pt_bus_AS1:0.0" depart="406.00" departLane="462900086#0_0" departPos="12.10" departSpeed="27.78" departDelay="0.00" arrival="421.00" arrivalLane="462900086#3_0" arrivalPos="79.37" arrivalSpeed="22.61" duration="15.00" routeLength="275.94" waitingTime="0.00" waitingCount="0" stopTime="0.00" timeLoss="4.83" rerouteNo="0" devices="tripinfo_pt_bus_AS1:0.0" vType="pt_bus" speedFactor="1.00" vaporized=""/>
    <tripinfo id="veh42" depart="262.00" departLane="-1183386157_0" departPos="5.10" departSpeed="13.00" departDelay="0.60" arrival="429.00" arrivalLane="309584108_0" arrivalPos="240.58" arrivalSpeed="12.80" duration="167.00" routeLength="2158.87" waitingTime="14.00" waitingCount="1" stopTime="0.00" timeLoss="53.89" rerouteNo="1" devices="tripinfo_veh42 routing_veh42" vType="veh_passenger" speedFactor="0.94" vaporized=""/>
    <tripinfo id="veh61" depart="380.00" departLane="995160694#1_0" departPos="5.10" departSpeed="11.50" departDelay="0.35" arrival="442.00" arrivalLane="40633860#1_0" arrivalPos="31.48" arrivalSpeed="11.96" duration="62.00" routeLength="1025.62" waitingTime="0.00" waitingCount="0" stopTime="0.00" timeLoss="12.46" rerouteNo="1" devices="tripinfo_veh61 routing_veh61" vType="veh_passenger" speedFactor="0.88" vaporized=""/>
    <tripinfo id="veh58" depart="361.00" departLane="1044521115#2_0" departPos="5.10" departSpeed="22.22" departDelay="0.02" arrival="445.00" arrivalLane="-40633858#5_0" arrivalPos="0.15" arrivalSpeed="4.07" duration="84.00" routeLength="479.64" waitingTime="42.00" waitingCount="1" stopTime="0.00" timeLoss="62.67" rerouteNo="1" devices="tripinfo_veh58 routing_veh58" vType="veh_passenger" speedFactor="1.21" vaporized=""/>
    <tripinfo id="veh50" depart="312.00" departLane="-32424806_0" departPos="5.10" departSpeed="13.89" departDelay="0.81" arrival="446.00" arrivalLane="-309584105#0_0" arrivalPos="75.95" arrivalSpeed="13.20" duration="134.00" routeLength="1532.38" waitingTime="15.00" waitingCount="2" stopTime="0.00" timeLoss="53.78" rerouteNo="1" devices="tripinfo_veh50 routing_veh50" vType="veh_passenger" speedFactor="1.02" vaporized=""/>
    <tripinfo id="veh62" depart="386.00" departLane="40633856#2_0" departPos="5.10" departSpeed="24.34" departDelay="0.13" arrival="451.00" arrivalLane="-27791621#0_0" arrivalPos="122.11" arrivalSpeed="18.94" duration="65.00" routeLength="1141.73" waitingTime="0.00" waitingCount="0" stopTime="0.00" timeLoss="11.34" rerouteNo="1" devices="tripinfo_veh62 routing_veh62" vType="veh_passenger" speedFactor="0.88" vaporized=""/>
    <tripinfo id="veh60" depart="374.00" departLane="1259589338#3_0" departPos="5.10" departSpeed="0.00" departDelay="0.58" arrival="460.00" arrivalLane="-1148415187#0_0" arrivalPos="85.35" arrivalSpeed="12.97" duration="86.00" routeLength="916.65" waitingTime="14.00" waitingCount="1" stopTime="0.00" timeLoss="38.49" rerouteNo="1" devices="tripinfo_veh60 routing_veh60" vType="veh_passenger" speedFactor="0.94" vaporized=""/>
    <tripinfo id="veh57" depart="355.00" departLane="-28104740#0_0" departPos="5.10" departSpeed="12.11" departDelay="0.25" arrival="465.00" arrivalLane="1102792429#0_0" arrivalPos="114.05" arrivalSpeed="11.16" duration="110.00" routeLength="1087.37" waitingTime="7.00" waitingCount="1" stopTime="0.00" timeLoss="36.11" rerouteNo="1" devices="tripinfo_veh57 routing_veh57" vType="veh_passenger" speedFactor="0.87" vaporized=""/>
    <tripinfo id="veh68" depart="424.00" departLane="-1125669870#3_0" departPos="5.10" departSpeed="11.38" departDelay="0.79" arrival="469.00" arrivalLane="1347255635#2_1" arrivalPos="107.05" arrivalSpeed="30.05" duration="45.00" routeLength="750.89" waitingTime="0.00" waitingCount="0" stopTime="0.00" timeLoss="8.83" rerouteNo="1" devices="tripinfo_veh68 routing_veh68" vType="veh_passenger" speedFactor="1.09" vaporized=""/>
    <tripinfo id="veh54" depart="337.00" departLane="780435844_0" departPos="5.10" departSpeed="13.88" departDelay="0.92" arrival="474.00" arrivalLane="-172930627#1_0" arrivalPos="82.54" arrivalSpeed="14.86" duration="137.00" routeLength="1752.15" waitingTime="3.00" waitingCount="1" stopTime="0.00" timeLoss="47.83" rerouteNo="1" devices="tripinfo_veh54 routing_veh54" vType="veh_passenger" speedFactor="1.10" vaporized=""/>